%VERSION  VERSION_STAMP = V0001.000  DATE = 07/20/26  19:23:58
%FLAG TITLE
%FORMAT(20a4)
default_name
%FLAG POINTERS
%FORMAT(10I8)
     520      24     262     262     605     341    1182     990       0       0
    2838      27     262     341     990      63     146     180      43       0
       0       0       0       0       0       0       0       0     129       0
       0
%FLAG ATOM_NAME
%FORMAT(20a4)
N   H1  H2  H3  CA  HA2 HA3 C   O   N   H   CA  HA  CB  HB  CG2 HG21HG22HG23OG1 
HG1 C   O   N   H   CA  HA  CB  HB2 HB3 CG  CD1 HD1 CE1 HE1 CZ  HZ  CE2 HE2 CD2 
HD2 C   O   N   H   CA  HA  CB  HB  CG2 HG21HG22HG23OG1 HG1 C   O   N   H   CA  
HA  CB  HB2 HB3 OG  HG  C   O   N   H   CA  HA  CB  HB2 HB3 CG  OD1 OD2 C   O   
N   H   CA  HA  CB  HB  CG1 HG11HG12HG13CG2 HG21HG22HG23C   O   N   H   CA  HA  
CB  HB2 HB3 OG  HG  C   O   N   H   CA  HA  CB  HB2 HB3 OG  HG  C   O   N   H   
CA  HA  CB  HB2 HB3 CG  CD1 HD1 CE1 HE1 CZ  OH  HH  CE2 HE2 CD2 HD2 C   O   N   
H   CA  HA  CB  HB2 HB3 CG  HG  CD1 HD11HD12HD13CD2 HD21HD22HD23C   O   N   H   
CA  HA  CB  HB2 HB3 CG  HG2 HG3 CD  OE1 OE2 C   O   N   H   CA  HA2 HA3 C   O   
N   H   CA  HA  CB  HB2 HB3 CG  HG2 HG3 CD  OE1 NE2 HE21HE22C   O   N   H   CA  
HA  CB  HB1 HB2 HB3 C   O   N   H   CA  HA  CB  HB1 HB2 HB3 C   O   N   H   CA  
HA  CB  HB2 HB3 CG  HG2 HG3 CD  HD2 HD3 CE  HE2 HE3 NZ  C   O   N   H   CA  HA  
CB  HB2 HB3 CG  HG2 HG3 CD  OE1 OE2 C   O   N   H   CA  HA  CB  HB2 HB3 CG  CD1 
HD1 CE1 HE1 CZ  HZ  CE2 HE2 CD2 HD2 C   O   N   H   CA  HA  CB  HB  CG2 HG21HG22
HG23CG1 HG12HG13CD1 HD11HD12HD13C   O   N   H   CA  HA  CB  HB1 HB2 HB3 C   O   
N   H   CA  HA  CB  HB2 HB3 CG  CD1 HD1 NE1 HE1 CE2 CZ2 HZ2 CH2 HH2 CZ3 HZ3 CE3 
HE3 CD2 C   O   N   H   CA  HA  CB  HB2 HB3 CG  HG  CD1 HD11HD12HD13CD2 HD21HD22
HD23C   O   N   H   CA  HA  CB  HB  CG1 HG11HG12HG13CG2 HG21HG22HG23C   O   N   
H   CA  HA  CB  HB2 HB3 CG  HG2 HG3 CD  HD2 HD3 NE  HE  CZ  NH1 HH11HH12NH2 HH21
HH22C   O   N   H   CA  HA2 HA3 C   O   OXT C11 O12 C13 C14 C15 N16 C17 O18 N19 
C20 C21 O22 C23 C24 O25 C26 C27 O28 N29 C30 C31 O32 C33 C34 O35 C36 C37 O38 N39 
C40 C41 O42 C43 C44 O45 C46 C47 O48 C49 C50 C51 C52 C53 C54 C55 C56 C57 C58 C59 
C60 C61 C62 C63 C64 C65 O66 O67 H86 H87 H88 H89 H90 H91 H92 H93 H94 H95 H96 H97 
H98 H99 H100H101H102H103H104H105H106H107H108H109H110H111H112H113H114H115H116H117
H118H119H120H121H122H123H124H125H126H127H128H129H130H131H132H133H134H135H136H137
H138H139H140H141H142H143H144H145H146H147H148H149H150H151H152H153H154H155H156H157
%FLAG CHARGE
%FORMAT(5E16.8)
  5.36282289E+00  2.99210166E+00  2.99210166E+00  2.99210166E+00 -1.82223000E-01
  1.63089585E+00  1.63089585E+00  1.12304035E+01 -1.04268001E+01 -7.57501011E+00
  4.95464337E+00 -7.08847470E-01  1.83498561E+00  6.65842842E+00  7.83558900E-02
 -4.44259674E+00  1.16987166E+00  1.16987166E+00  1.16987166E+00 -1.23200970E+01
  7.47478746E+00  1.08841798E+01 -1.03484442E+01 -7.57501011E+00  4.95464337E+00
 -4.37335200E-02  1.78214094E+00 -6.25024890E-01  5.37557850E-01  5.37557850E-01
  2.15023140E-01 -2.28872088E+00  2.42356590E+00 -3.10507992E+00  2.60578890E+00
 -1.95343056E+00  2.36343231E+00 -3.10507992E+00  2.60578890E+00 -2.28872088E+00
  2.42356590E+00  1.08841798E+01 -1.03484442E+01 -7.57501011E+00  4.95464337E+00
 -7.08847470E-01  1.83498561E+00  6.65842842E+00  7.83558900E-02 -4.44259674E+00
  1.16987166E+00  1.16987166E+00  1.16987166E+00 -1.23200970E+01  7.47478746E+00
  1.08841798E+01 -1.03484442E+01 -7.57501011E+00  4.95464337E+00 -4.53735270E-01
  1.53613989E+00  3.85766091E+00  6.41424960E-01  6.41424960E-01 -1.19283176E+01
  7.79003325E+00  1.08841798E+01 -1.03484442E+01 -9.40817349E+00  5.35006728E+00
  6.94269630E-01  1.60356240E+00 -5.52135690E-01 -2.22312060E-01 -2.22312060E-01
  1.45669066E+01 -1.46033512E+01 -1.46033512E+01  9.77808618E+00 -1.06035564E+01
 -7.57501011E+00  4.95464337E+00 -1.59445125E+00  1.76574087E+00  5.43935655E+00
 -5.41202310E-01 -5.81655816E+00  1.44138393E+00  1.44138393E+00  1.44138393E+00
 -5.81655816E+00  1.44138393E+00  1.44138393E+00  1.44138393E+00  1.08841798E+01
 -1.03484442E+01 -7.57501011E+00  4.95464337E+00 -4.53735270E-01  1.53613989E+00
  3.85766091E+00  6.41424960E-01  6.41424960E-01 -1.19283176E+01  7.79003325E+00
  1.08841798E+01 -1.03484442E+01 -7.57501011E+00  4.95464337E+00 -4.53735270E-01
  1.53613989E+00  3.85766091E+00  6.41424960E-01  6.41424960E-01 -1.19283176E+01
  7.79003325E+00  1.08841798E+01 -1.03484442E+01 -7.57501011E+00  4.95464337E+00
 -2.55112200E-02  1.59627348E+00 -2.76978960E-01  5.37557850E-01  5.37557850E-01
 -2.00445300E-02 -3.47317038E+00  3.09596877E+00 -4.26584043E+00  3.01761288E+00
  5.87851398E+00 -1.01662212E+01  7.27434216E+00 -4.26584043E+00  3.01761288E+00
 -3.47317038E+00  3.09596877E+00  1.08841798E+01 -1.03484442E+01 -7.57501011E+00
  4.95464337E+00 -9.43915140E-01  1.68009606E+00 -2.00809746E+00  8.32759110E-01
  8.32759110E-01  6.43429413E+00 -6.57825030E-01 -7.50940983E+00  1.82223000E+00
  1.82223000E+00  1.82223000E+00 -7.50940983E+00  1.82223000E+00  1.82223000E+00
  1.82223000E+00  1.08841798E+01 -1.03484442E+01 -9.40817349E+00  5.35006728E+00
  7.23425310E-01  2.01356415E+00  1.02044880E+00 -3.15245790E-01 -3.15245790E-01
  2.47823280E-01 -7.74447750E-01 -7.74447750E-01  1.46762404E+01 -1.49204192E+01
 -1.49204192E+01  9.77808618E+00 -1.06035564E+01 -7.57501011E+00  4.95464337E+00
 -4.59201960E-01  1.27191654E+00  1.27191654E+00  1.08841798E+01 -1.03484442E+01
 -7.57501011E+00  4.95464337E+00 -5.64891300E-02  1.54889550E+00 -6.56002800E-02
  3.11601330E-01  3.11601330E-01 -1.17533835E+00  6.41424960E-01  6.41424960E-01
  1.26663207E+01 -1.10900918E+01 -1.71417176E+01  7.74629973E+00  7.74629973E+00
  1.08841798E+01 -1.03484442E+01 -7.57501011E+00  4.95464337E+00  6.14091510E-01
  1.49969529E+00 -3.32556975E+00  1.09880469E+00  1.09880469E+00  1.09880469E+00
  1.08841798E+01 -1.03484442E+01 -7.57501011E+00  4.95464337E+00  6.14091510E-01
  1.49969529E+00 -3.32556975E+00  1.09880469E+00  1.09880469E+00  1.09880469E+00
  1.08841798E+01 -1.03484442E+01 -6.33953817E+00  5.00566581E+00 -4.37335200E+00
  2.59849998E+00 -1.71289620E-01  6.59647260E-01  6.59647260E-01  3.40757010E-01
  1.87689690E-01  1.87689690E-01 -8.72848170E-01  1.13160483E+00  1.13160483E+00
 -2.60578890E-01  2.06823105E+00  2.06823105E+00 -7.02287442E+00  1.33769904E+01
 -1.07402236E+01 -9.40817349E+00  5.35006728E+00  7.23425310E-01  2.01356415E+00
  1.02044880E+00 -3.15245790E-01 -3.15245790E-01  2.47823280E-01 -7.74447750E-01
 -7.74447750E-01  1.46762404E+01 -1.49204192E+01 -1.49204192E+01  9.77808618E+00
 -1.06035564E+01 -7.57501011E+00  4.95464337E+00 -4.37335200E-02  1.78214094E+00
 -6.25024890E-01  5.37557850E-01  5.37557850E-01  2.15023140E-01 -2.28872088E+00
  2.42356590E+00 -3.10507992E+00  2.60578890E+00 -1.95343056E+00  2.36343231E+00
 -3.10507992E+00  2.60578890E+00 -2.28872088E+00  2.42356590E+00  1.08841798E+01
 -1.03484442E+01 -7.57501011E+00  4.95464337E+00 -1.08787131E+00  1.58351787E+00
  2.37436569E+00  3.40757010E-01 -5.83842492E+00  1.60720686E+00  1.60720686E+00
  1.60720686E+00 -7.83558900E-01  4.30046280E-01  4.30046280E-01 -1.20267180E+00
  3.38934780E-01  3.38934780E-01  3.38934780E-01  1.08841798E+01 -1.03484442E+01
 -7.57501011E+00  4.95464337E+00  6.14091510E-01  1.49969529E+00 -3.32556975E+00
  1.09880469E+00  1.09880469E+00  1.09880469E+00  1.08841798E+01 -1.03484442E+01
 -7.57501011E+00  4.95464337E+00 -5.01113250E-01  2.04636429E+00 -9.11115000E-02
  6.17735970E-01  6.17735970E-01 -2.57845545E+00 -2.98481274E+00  3.75743826E+00
 -6.22838214E+00  6.21744876E+00  2.51467740E+00 -4.73962023E+00  2.86454556E+00
 -2.06640882E+00  2.58209991E+00 -3.59343756E+00  2.63676681E+00 -4.34966301E+00
  3.09779100E+00  2.26503189E+00  1.08841798E+01 -1.03484442E+01 -7.57501011E+00
  4.95464337E+00 -9.43915140E-01  1.68009606E+00 -2.00809746E+00  8.32759110E-01
  8.32759110E-01  6.43429413E+00 -6.57825030E-01 -7.50940983E+00  1.82223000E+00
  1.82223000E+00  1.82223000E+00 -7.50940983E+00  1.82223000E+00  1.82223000E+00
  1.82223000E+00  1.08841798E+01 -1.03484442E+01 -7.57501011E+00  4.95464337E+00
 -1.59445125E+00  1.76574087E+00  5.43935655E+00 -5.41202310E-01 -5.81655816E+00
  1.44138393E+00  1.44138393E+00  1.44138393E+00 -5.81655816E+00  1.44138393E+00
  1.44138393E+00  1.44138393E+00  1.08841798E+01 -1.03484442E+01 -6.33953817E+00
  5.00566581E+00 -4.80522051E+00  2.84267880E+00 -1.27556100E-02  5.95869210E-01
  5.95869210E-01  7.10669700E-01  5.19335550E-01  5.19335550E-01  8.85603780E-01
  1.25187201E+00  1.25187201E+00 -9.64870785E+00  6.29762688E+00  1.47163295E+01
 -1.57203782E+01  8.15994594E+00  8.15994594E+00 -1.57203782E+01  8.15994594E+00
  8.15994594E+00  1.33769904E+01 -1.07402236E+01 -6.96274083E+00  4.88539863E+00
 -4.54281939E+00  1.92427488E+00  1.92427488E+00  1.31765451E+01 -1.43136167E+01
 -1.43136167E+01 -8.93639814E-01 -6.77505114E+00 -8.93639814E-01 -8.93639814E-01
 -8.93639814E-01 -6.54180570E+00 -8.93639814E-01 -6.77505114E+00 -6.54180570E+00
 -8.93639814E-01 -8.93639814E-01 -6.77505114E+00 -8.93639814E-01 -8.93639814E-01
 -6.77505114E+00 -8.93639814E-01 -8.93639814E-01 -6.77505114E+00 -6.54180570E+00
 -8.93639814E-01 -8.93639814E-01 -6.77505114E+00 -8.93639814E-01 -8.93639814E-01
 -6.77505114E+00 -8.93639814E-01 -8.93639814E-01 -6.77505114E+00 -6.54180570E+00
 -8.93639814E-01 -8.93639814E-01 -6.77505114E+00 -8.93639814E-01 -8.93639814E-01
 -6.77505114E+00 -8.93639814E-01 -8.93639814E-01 -6.77505114E+00 -8.93639814E-01
 -8.93639814E-01 -8.93639814E-01 -8.93639814E-01 -8.93639814E-01 -8.93639814E-01
 -8.93639814E-01 -8.93639814E-01 -8.93639814E-01 -8.93639814E-01 -8.93639814E-01
 -8.93639814E-01 -8.93639814E-01 -8.93639814E-01 -8.93639814E-01 -8.93639814E-01
 -8.93639814E-01 -6.77505114E+00 -6.77505114E+00  1.92245265E+00  1.92245265E+00
  1.92245265E+00  1.92245265E+00  1.92245265E+00  1.92245265E+00  1.92245265E+00
  1.92245265E+00  1.92245265E+00  1.92245265E+00  1.92245265E+00  1.92245265E+00
  1.92245265E+00  1.92245265E+00  1.92245265E+00  1.92245265E+00  1.92245265E+00
  1.92245265E+00  1.92245265E+00  1.92245265E+00  1.92245265E+00  1.92245265E+00
  1.92245265E+00  1.92245265E+00  1.92245265E+00  1.92245265E+00  1.92245265E+00
  1.92245265E+00  1.92245265E+00  1.92245265E+00  1.92245265E+00  1.92245265E+00
  1.92245265E+00  1.92245265E+00  1.92245265E+00  1.92245265E+00  1.92245265E+00
  1.92245265E+00  1.92245265E+00  1.92245265E+00  1.92245265E+00  1.92245265E+00
  1.92245265E+00  1.92245265E+00  1.92245265E+00  1.92245265E+00  1.92245265E+00
  1.92245265E+00  1.92245265E+00  1.92245265E+00  1.92245265E+00  1.92245265E+00
  1.92245265E+00  1.92245265E+00  1.92245265E+00  1.92245265E+00  1.92245265E+00
  1.92245265E+00  1.92245265E+00  1.92245265E+00  1.92245265E+00  1.92245265E+00
  1.92245265E+00  1.92245265E+00  1.92245265E+00  1.92245265E+00  1.92245265E+00
  1.92245265E+00  1.92245265E+00  1.92245265E+00  1.92245265E+00  1.92245265E+00
%FLAG ATOMIC_NUMBER
%FORMAT(10I8)
       7       1       1       1       6       1       1       6       8       7
       1       6       1       6       1       6       1       1       1       8
       1       6       8       7       1       6       1       6       1       1
       6       6       1       6       1       6       1       6       1       6
       1       6       8       7       1       6       1       6       1       6
       1       1       1       8       1       6       8       7       1       6
       1       6       1       1       8       1       6       8       7       1
       6       1       6       1       1       6       8       8       6       8
       7       1       6       1       6       1       6       1       1       1
       6       1       1       1       6       8       7       1       6       1
       6       1       1       8       1       6       8       7       1       6
       1       6       1       1       8       1       6       8       7       1
       6       1       6       1       1       6       6       1       6       1
       6       8       1       6       1       6       1       6       8       7
       1       6       1       6       1       1       6       1       6       1
       1       1       6       1       1       1       6       8       7       1
       6       1       6       1       1       6       1       1       6       8
       8       6       8       7       1       6       1       1       6       8
       7       1       6       1       6       1       1       6       1       1
       6       8       7       1       1       6       8       7       1       6
       1       6       1       1       1       6       8       7       1       6
       1       6       1       1       1       6       8       7       1       6
       1       6       1       1       6       1       1       6       1       1
       6       1       1       7       6       8       7       1       6       1
       6       1       1       6       1       1       6       8       8       6
       8       7       1       6       1       6       1       1       6       6
       1       6       1       6       1       6       1       6       1       6
       8       7       1       6       1       6       1       6       1       1
       1       6       1       1       6       1       1       1       6       8
       7       1       6       1       6       1       1       1       6       8
       7       1       6       1       6       1       1       6       6       1
       7       1       6       6       1       6       1       6       1       6
       1       6       6       8       7       1       6       1       6       1
       1       6       1       6       1       1       1       6       1       1
       1       6       8       7       1       6       1       6       1       6
       1       1       1       6       1       1       1       6       8       7
       1       6       1       6       1       1       6       1       1       6
       1       1       7       1       6       7       1       1       7       1
       1       6       8       7       1       6       1       1       6       8
       8       6       8       6       6       6       7       6       8       7
       6       6       8       6       6       8       6       6       8       7
       6       6       8       6       6       8       6       6       8       7
       6       6       8       6       6       8       6       6       8       6
       6       6       6       6       6       6       6       6       6       6
       6       6       6       6       6       6       8       8       1       1
       1       1       1       1       1       1       1       1       1       1
       1       1       1       1       1       1       1       1       1       1
       1       1       1       1       1       1       1       1       1       1
       1       1       1       1       1       1       1       1       1       1
       1       1       1       1       1       1       1       1       1       1
       1       1       1       1       1       1       1       1       1       1
       1       1       1       1       1       1       1       1       1       1
%FLAG MASS
%FORMAT(5E16.8)
  1.40100000E+01  1.00800000E+00  1.00800000E+00  1.00800000E+00  1.20100000E+01
  1.00800000E+00  1.00800000E+00  1.20100000E+01  1.60000000E+01  1.40100000E+01
  1.00800000E+00  1.20100000E+01  1.00800000E+00  1.20100000E+01  1.00800000E+00
  1.20100000E+01  1.00800000E+00  1.00800000E+00  1.00800000E+00  1.60000000E+01
  1.00800000E+00  1.20100000E+01  1.60000000E+01  1.40100000E+01  1.00800000E+00
  1.20100000E+01  1.00800000E+00  1.20100000E+01  1.00800000E+00  1.00800000E+00
  1.20100000E+01  1.20100000E+01  1.00800000E+00  1.20100000E+01  1.00800000E+00
  1.20100000E+01  1.00800000E+00  1.20100000E+01  1.00800000E+00  1.20100000E+01
  1.00800000E+00  1.20100000E+01  1.60000000E+01  1.40100000E+01  1.00800000E+00
  1.20100000E+01  1.00800000E+00  1.20100000E+01  1.00800000E+00  1.20100000E+01
  1.00800000E+00  1.00800000E+00  1.00800000E+00  1.60000000E+01  1.00800000E+00
  1.20100000E+01  1.60000000E+01  1.40100000E+01  1.00800000E+00  1.20100000E+01
  1.00800000E+00  1.20100000E+01  1.00800000E+00  1.00800000E+00  1.60000000E+01
  1.00800000E+00  1.20100000E+01  1.60000000E+01  1.40100000E+01  1.00800000E+00
  1.20100000E+01  1.00800000E+00  1.20100000E+01  1.00800000E+00  1.00800000E+00
  1.20100000E+01  1.60000000E+01  1.60000000E+01  1.20100000E+01  1.60000000E+01
  1.40100000E+01  1.00800000E+00  1.20100000E+01  1.00800000E+00  1.20100000E+01
  1.00800000E+00  1.20100000E+01  1.00800000E+00  1.00800000E+00  1.00800000E+00
  1.20100000E+01  1.00800000E+00  1.00800000E+00  1.00800000E+00  1.20100000E+01
  1.60000000E+01  1.40100000E+01  1.00800000E+00  1.20100000E+01  1.00800000E+00
  1.20100000E+01  1.00800000E+00  1.00800000E+00  1.60000000E+01  1.00800000E+00
  1.20100000E+01  1.60000000E+01  1.40100000E+01  1.00800000E+00  1.20100000E+01
  1.00800000E+00  1.20100000E+01  1.00800000E+00  1.00800000E+00  1.60000000E+01
  1.00800000E+00  1.20100000E+01  1.60000000E+01  1.40100000E+01  1.00800000E+00
  1.20100000E+01  1.00800000E+00  1.20100000E+01  1.00800000E+00  1.00800000E+00
  1.20100000E+01  1.20100000E+01  1.00800000E+00  1.20100000E+01  1.00800000E+00
  1.20100000E+01  1.60000000E+01  1.00800000E+00  1.20100000E+01  1.00800000E+00
  1.20100000E+01  1.00800000E+00  1.20100000E+01  1.60000000E+01  1.40100000E+01
  1.00800000E+00  1.20100000E+01  1.00800000E+00  1.20100000E+01  1.00800000E+00
  1.00800000E+00  1.20100000E+01  1.00800000E+00  1.20100000E+01  1.00800000E+00
  1.00800000E+00  1.00800000E+00  1.20100000E+01  1.00800000E+00  1.00800000E+00
  1.00800000E+00  1.20100000E+01  1.60000000E+01  1.40100000E+01  1.00800000E+00
  1.20100000E+01  1.00800000E+00  1.20100000E+01  1.00800000E+00  1.00800000E+00
  1.20100000E+01  1.00800000E+00  1.00800000E+00  1.20100000E+01  1.60000000E+01
  1.60000000E+01  1.20100000E+01  1.60000000E+01  1.40100000E+01  1.00800000E+00
  1.20100000E+01  1.00800000E+00  1.00800000E+00  1.20100000E+01  1.60000000E+01
  1.40100000E+01  1.00800000E+00  1.20100000E+01  1.00800000E+00  1.20100000E+01
  1.00800000E+00  1.00800000E+00  1.20100000E+01  1.00800000E+00  1.00800000E+00
  1.20100000E+01  1.60000000E+01  1.40100000E+01  1.00800000E+00  1.00800000E+00
  1.20100000E+01  1.60000000E+01  1.40100000E+01  1.00800000E+00  1.20100000E+01
  1.00800000E+00  1.20100000E+01  1.00800000E+00  1.00800000E+00  1.00800000E+00
  1.20100000E+01  1.60000000E+01  1.40100000E+01  1.00800000E+00  1.20100000E+01
  1.00800000E+00  1.20100000E+01  1.00800000E+00  1.00800000E+00  1.00800000E+00
  1.20100000E+01  1.60000000E+01  1.40100000E+01  1.00800000E+00  1.20100000E+01
  1.00800000E+00  1.20100000E+01  1.00800000E+00  1.00800000E+00  1.20100000E+01
  1.00800000E+00  1.00800000E+00  1.20100000E+01  1.00800000E+00  1.00800000E+00
  1.20100000E+01  1.00800000E+00  1.00800000E+00  1.40100000E+01  1.20100000E+01
  1.60000000E+01  1.40100000E+01  1.00800000E+00  1.20100000E+01  1.00800000E+00
  1.20100000E+01  1.00800000E+00  1.00800000E+00  1.20100000E+01  1.00800000E+00
  1.00800000E+00  1.20100000E+01  1.60000000E+01  1.60000000E+01  1.20100000E+01
  1.60000000E+01  1.40100000E+01  1.00800000E+00  1.20100000E+01  1.00800000E+00
  1.20100000E+01  1.00800000E+00  1.00800000E+00  1.20100000E+01  1.20100000E+01
  1.00800000E+00  1.20100000E+01  1.00800000E+00  1.20100000E+01  1.00800000E+00
  1.20100000E+01  1.00800000E+00  1.20100000E+01  1.00800000E+00  1.20100000E+01
  1.60000000E+01  1.40100000E+01  1.00800000E+00  1.20100000E+01  1.00800000E+00
  1.20100000E+01  1.00800000E+00  1.20100000E+01  1.00800000E+00  1.00800000E+00
  1.00800000E+00  1.20100000E+01  1.00800000E+00  1.00800000E+00  1.20100000E+01
  1.00800000E+00  1.00800000E+00  1.00800000E+00  1.20100000E+01  1.60000000E+01
  1.40100000E+01  1.00800000E+00  1.20100000E+01  1.00800000E+00  1.20100000E+01
  1.00800000E+00  1.00800000E+00  1.00800000E+00  1.20100000E+01  1.60000000E+01
  1.40100000E+01  1.00800000E+00  1.20100000E+01  1.00800000E+00  1.20100000E+01
  1.00800000E+00  1.00800000E+00  1.20100000E+01  1.20100000E+01  1.00800000E+00
  1.40100000E+01  1.00800000E+00  1.20100000E+01  1.20100000E+01  1.00800000E+00
  1.20100000E+01  1.00800000E+00  1.20100000E+01  1.00800000E+00  1.20100000E+01
  1.00800000E+00  1.20100000E+01  1.20100000E+01  1.60000000E+01  1.40100000E+01
  1.00800000E+00  1.20100000E+01  1.00800000E+00  1.20100000E+01  1.00800000E+00
  1.00800000E+00  1.20100000E+01  1.00800000E+00  1.20100000E+01  1.00800000E+00
  1.00800000E+00  1.00800000E+00  1.20100000E+01  1.00800000E+00  1.00800000E+00
  1.00800000E+00  1.20100000E+01  1.60000000E+01  1.40100000E+01  1.00800000E+00
  1.20100000E+01  1.00800000E+00  1.20100000E+01  1.00800000E+00  1.20100000E+01
  1.00800000E+00  1.00800000E+00  1.00800000E+00  1.20100000E+01  1.00800000E+00
  1.00800000E+00  1.00800000E+00  1.20100000E+01  1.60000000E+01  1.40100000E+01
  1.00800000E+00  1.20100000E+01  1.00800000E+00  1.20100000E+01  1.00800000E+00
  1.00800000E+00  1.20100000E+01  1.00800000E+00  1.00800000E+00  1.20100000E+01
  1.00800000E+00  1.00800000E+00  1.40100000E+01  1.00800000E+00  1.20100000E+01
  1.40100000E+01  1.00800000E+00  1.00800000E+00  1.40100000E+01  1.00800000E+00
  1.00800000E+00  1.20100000E+01  1.60000000E+01  1.40100000E+01  1.00800000E+00
  1.20100000E+01  1.00800000E+00  1.00800000E+00  1.20100000E+01  1.60000000E+01
  1.60000000E+01  1.20100000E+01  1.60000000E+01  1.20100000E+01  1.20100000E+01
  1.20100000E+01  1.40100000E+01  1.20100000E+01  1.60000000E+01  1.40100000E+01
  1.20100000E+01  1.20100000E+01  1.60000000E+01  1.20100000E+01  1.20100000E+01
  1.60000000E+01  1.20100000E+01  1.20100000E+01  1.60000000E+01  1.40100000E+01
  1.20100000E+01  1.20100000E+01  1.60000000E+01  1.20100000E+01  1.20100000E+01
  1.60000000E+01  1.20100000E+01  1.20100000E+01  1.60000000E+01  1.40100000E+01
  1.20100000E+01  1.20100000E+01  1.60000000E+01  1.20100000E+01  1.20100000E+01
  1.60000000E+01  1.20100000E+01  1.20100000E+01  1.60000000E+01  1.20100000E+01
  1.20100000E+01  1.20100000E+01  1.20100000E+01  1.20100000E+01  1.20100000E+01
  1.20100000E+01  1.20100000E+01  1.20100000E+01  1.20100000E+01  1.20100000E+01
  1.20100000E+01  1.20100000E+01  1.20100000E+01  1.20100000E+01  1.20100000E+01
  1.20100000E+01  1.60000000E+01  1.60000000E+01  1.00800000E+00  1.00800000E+00
  1.00800000E+00  1.00800000E+00  1.00800000E+00  1.00800000E+00  1.00800000E+00
  1.00800000E+00  1.00800000E+00  1.00800000E+00  1.00800000E+00  1.00800000E+00
  1.00800000E+00  1.00800000E+00  1.00800000E+00  1.00800000E+00  1.00800000E+00
  1.00800000E+00  1.00800000E+00  1.00800000E+00  1.00800000E+00  1.00800000E+00
  1.00800000E+00  1.00800000E+00  1.00800000E+00  1.00800000E+00  1.00800000E+00
  1.00800000E+00  1.00800000E+00  1.00800000E+00  1.00800000E+00  1.00800000E+00
  1.00800000E+00  1.00800000E+00  1.00800000E+00  1.00800000E+00  1.00800000E+00
  1.00800000E+00  1.00800000E+00  1.00800000E+00  1.00800000E+00  1.00800000E+00
  1.00800000E+00  1.00800000E+00  1.00800000E+00  1.00800000E+00  1.00800000E+00
  1.00800000E+00  1.00800000E+00  1.00800000E+00  1.00800000E+00  1.00800000E+00
  1.00800000E+00  1.00800000E+00  1.00800000E+00  1.00800000E+00  1.00800000E+00
  1.00800000E+00  1.00800000E+00  1.00800000E+00  1.00800000E+00  1.00800000E+00
  1.00800000E+00  1.00800000E+00  1.00800000E+00  1.00800000E+00  1.00800000E+00
  1.00800000E+00  1.00800000E+00  1.00800000E+00  1.00800000E+00  1.00800000E+00
%FLAG ATOM_TYPE_INDEX
%FORMAT(10I8)
       1       2       2       2       3       4       4       9      10       1
       2       3       5       3       5       3       6       6       6       7
       8       9      10       1       2       3       5       3       6       6
       9       9      12       9      12       9      12       9      12       9
      12       9      10       1       2       3       5       3       5       3
       6       6       6       7       8       9      10       1       2       3
       5       3       5       5       7       8       9      10       1       2
       3       5       3       6       6       9      10      10       9      10
       1       2       3       5       3       6       3       6       6       6
       3       6       6       6       9      10       1       2       3       5
       3       5       5       7       8       9      10       1       2       3
       5       3       5       5       7       8       9      10       1       2
       3       5       3       6       6       9       9      12       9      12
       9       7       8       9      12       9      12       9      10       1
       2       3       5       3       6       6       3       6       3       6
       6       6       3       6       6       6       9      10       1       2
       3       5       3       6       6       3       6       6       9      10
      10       9      10       1       2       3       5       5       9      10
       1       2       3       5       3       6       6       3       6       6
       9      10       1       2       2       9      10       1       2       3
       5       3       6       6       6       9      10       1       2       3
       5       3       6       6       6       9      10       1       2       3
       5       3       6       6       3       6       6       3       6       6
       3       4       4       1       9      10       1       2       3       5
       3       6       6       3       6       6       9      10      10       9
      10       1       2       3       5       3       6       6       9       9
      12       9      12       9      12       9      12       9      12       9
      10       1       2       3       5       3       6       3       6       6
       6       3       6       6       3       6       6       6       9      10
       1       2       3       5       3       6       6       6       9      10
       1       2       3       5       3       6       6       9       9      11
       1       2       9       9      12       9      12       9      12       9
      12       9       9      10       1       2       3       5       3       6
       6       3       6       3       6       6       6       3       6       6
       6       9      10       1       2       3       5       3       6       3
       6       6       6       3       6       6       6       9      10       1
       2       3       5       3       6       6       3       6       6       3
       5       5       1       2       9       1       2       2       1       2
       2       9      10       1       2       3       5       5       9      10
      10      15      16      17      17      17      18      15      16      19
      17      17      20      17      17      20      17      15      16      19
      17      17      20      17      17      20      17      15      16      19
      17      17      20      17      17      20      17      15      16      17
      17      17      17      17      17      17      17      17      17      17
      17      17      17      17      17      15      16      16      21      21
      21      21      21      22      22      22      21      21      21      21
      21      21      21      21      21      21      22      21      21      21
      21      21      21      21      21      21      21      22      21      21
      21      21      21      21      21      21      21      21      21      21
      21      21      21      21      21      21      21      21      21      21
      21      21      21      21      21      21      21      21      21      21
      21      21      21      21      21      21      21      21      21      21
%FLAG NUMBER_EXCLUDED_ATOMS
%FORMAT(10I8)
       9       6       5       4       7       4       3       7       3      10
       4      14       7      10       7       6       3       2       1       2
       1       7       3      10       4      12       7      12       5       4
      10       8       4       6       3       5       3       3       2       1
       1       7       3      10       4      14       7      10       7       6
       3       2       1       2       1       7       3      10       4      11
       7       7       4       3       2       1       7       3      10       4
      12       7       8       5       4       3       1       1       7       3
      10       4      16       7      12       9       8       3       2       1
       4       2       1       1       7       3      10       4      11       7
       7       4       3       2       1       7       3      10       4      11
       7       7       4       3       2       1       7       3      10       4
      12       7      12       5       4      10       8       4       7       3
       6       4       1       3       2       1       1       7       3      10
       4      13       7      15       6       5      10       8       7       3
       2       1       3       2       1       1       7       3      10       4
      13       7      11       6       5       6       4       3       2       1
       1       7       3       7       4       7       4       3       7       3
      10       4      13       7      11       6       5       8       4       3
       4       3       2       1       1       7       3      10       4      10
       7       6       3       2       1       7       3      10       4      10
       7       6       3       2       1       7       3      10       4      13
       7      12       6       5      10       5       4       7       5       4
       6       3       2       6       7       3      10       4      13       7
      11       6       5       6       4       3       2       1       1       7
       3      10       4      12       7      12       5       4      10       8
       4       6       3       5       3       3       2       1       1       7
       3      10       4      16       7      15       9       8       3       2
       1       7       5       4       3       2       1       1       7       3
      10       4      10       7       6       3       2       1       7       3
      10       4      12       7      12       5       4      11       7       4
       7       3       8       7       4       6       3       4       3       2
       1       1       7       3      10       4      13       7      15       6
       5      10       8       7       3       2       1       3       2       1
       1       7       3      10       4      16       7      12       9       8
       3       2       1       4       2       1       1       7       3      10
       4      13       7      12       6       5       9       5       4       7
       4       3       8       3       6       5       2       1       2       1
       1       7       3       7       4       5       4       3       2       1
       1       8       4       9      12      13       8      12       4       9
       8      10      11       9       9      10       9       9       5      10
       8      10      11       9       9      10       9       9       5      10
       8      10      11       9       9      10      10      10       6      11
      11      13      13      13      13      13      13      13      13      13
      13      13      13      12       9       6       3       2       3       2
       2       1       2       1       1       2       3       2       1       1
       3       2       1       1       1       1       2       3       2       1
       1       3       2       1       1       1       1       2       3       2
       1       1       3       2       1       1       1       1       3       2
       3       2       3       2       3       2       3       2       3       2
       3       2       3       2       3       2       3       2       3       2
       3       2       3       2       3       2       3       2       1       1
%FLAG NONBONDED_PARM_INDEX
%FORMAT(10I8)
       1       2       4       7      11      16      22      29      37      46
      56      67      79      92     106     121     137     154     172     191
     211     232     254     277       2       3       5       8      12      17
      23      30      38      47      57      68      80      93     107     122
     138     155     173     192     212     233     255     278       4       5
       6       9      13      18      24      31      39      48      58      69
      81      94     108     123     139     156     174     193     213     234
     256     279       7       8       9      10      14      19      25      32
      40      49      59      70      82      95     109     124     140     157
     175     194     214     235     257     280      11      12      13      14
      15      20      26      33      41      50      60      71      83      96
     110     125     141     158     176     195     215     236     258     281
      16      17      18      19      20      21      27      34      42      51
      61      72      84      97     111     126     142     159     177     196
     216     237     259     282      22      23      24      25      26      27
      28      35      43      52      62      73      85      98     112     127
     143     160     178     197     217     238     260     283      29      30
      31      32      33      34      35      36      44      53      63      74
      86      99     113     128     144     161     179     198     218     239
     261     284      37      38      39      40      41      42      43      44
      45      54      64      75      87     100     114     129     145     162
     180     199     219     240     262     285      46      47      48      49
      50      51      52      53      54      55      65      76      88     101
     115     130     146     163     181     200     220     241     263     286
      56      57      58      59      60      61      62      63      64      65
      66      77      89     102     116     131     147     164     182     201
     221     242     264     287      67      68      69      70      71      72
      73      74      75      76      77      78      90     103     117     132
     148     165     183     202     222     243     265     288      79      80
      81      82      83      84      85      86      87      88      89      90
      91     104     118     133     149     166     184     203     223     244
     266     289      92      93      94      95      96      97      98      99
     100     101     102     103     104     105     119     134     150     167
     185     204     224     245     267     290     106     107     108     109
     110     111     112     113     114     115     116     117     118     119
     120     135     151     168     186     205     225     246     268     291
     121     122     123     124     125     126     127     128     129     130
     131     132     133     134     135     136     152     169     187     206
     226     247     269     292     137     138     139     140     141     142
     143     144     145     146     147     148     149     150     151     152
     153     170     188     207     227     248     270     293     154     155
     156     157     158     159     160     161     162     163     164     165
     166     167     168     169     170     171     189     208     228     249
     271     294     172     173     174     175     176     177     178     179
     180     181     182     183     184     185     186     187     188     189
     190     209     229     250     272     295     191     192     193     194
     195     196     197     198     199     200     201     202     203     204
     205     206     207     208     209     210     230     251     273     296
     211     212     213     214     215     216     217     218     219     220
     221     222     223     224     225     226     227     228     229     230
     231     252     274     297     232     233     234     235     236     237
     238     239     240     241     242     243     244     245     246     247
     248     249     250     251     252     253     275     298     254     255
     256     257     258     259     260     261     262     263     264     265
     266     267     268     269     270     271     272     273     274     275
     276     299     277     278     279     280     281     282     283     284
     285     286     287     288     289     290     291     292     293     294
     295     296     297     298     299     300
%FLAG RESIDUE_LABEL
%FORMAT(20a4)
GLY THR PHE THR SER ASP VAL SER SER TYR LEU GLU GLY GLN ALA ALA LYS GLU PHE ILE 
ALA TRP LEU VAL ARG GLY LNK 
%FLAG RESIDUE_POINTER
%FORMAT(10I8)
       1      10      24      44      58      69      81      97     108     119
     140     159     174     181     198     208     218     237     252     272
     291     301     325     344     360     384     392
%FLAG BOND_FORCE_CONSTANT
%FORMAT(5E16.8)
  4.34000000E+02  3.37000000E+02  3.40000000E+02  3.17000000E+02  6.56000000E+02
  3.10000000E+02  3.40000000E+02  3.10000000E+02  3.40000000E+02  3.37000000E+02
  4.34000000E+02  4.81000000E+02  4.90000000E+02  5.70000000E+02  3.10000000E+02
  3.40000000E+02  3.10000000E+02  3.40000000E+02  3.10000000E+02  3.40000000E+02
  3.10000000E+02  3.10000000E+02  3.17000000E+02  5.46000000E+02  3.67000000E+02
  4.27000000E+02  4.34000000E+02  4.28000000E+02  4.69000000E+02  3.67000000E+02
  4.69000000E+02  3.88000000E+02  4.47000000E+02  4.69000000E+02  3.10000000E+02
  3.17000000E+02  3.10000000E+02  3.17000000E+02  6.56000000E+02  3.40000000E+02
  3.67000000E+02  4.27000000E+02  3.17000000E+02  4.69000000E+02  4.50000000E+02
  5.53000000E+02  3.40000000E+02  3.20000000E+02  3.40000000E+02  3.20000000E+02
  4.34000000E+02  3.67000000E+02  3.40000000E+02  5.90600000E+02  2.34850000E+02
  3.45250000E+02  2.28890000E+02  2.82270000E+02  2.54460000E+02  5.27300000E+02
  3.17460000E+02  5.11300000E+02  2.55850000E+02
%FLAG BOND_EQUIL_VALUE
%FORMAT(5E16.8)
  1.01000000E+00  1.44900000E+00  1.09000000E+00  1.52200000E+00  1.25000000E+00
  1.52600000E+00  1.09000000E+00  1.52600000E+00  1.09000000E+00  1.46300000E+00
  1.01000000E+00  1.34000000E+00  1.33500000E+00  1.22900000E+00  1.52600000E+00
  1.09000000E+00  1.52600000E+00  1.09000000E+00  1.52600000E+00  1.09000000E+00
  1.52600000E+00  1.52600000E+00  1.49500000E+00  1.35200000E+00  1.08000000E+00
  1.38100000E+00  1.01000000E+00  1.38000000E+00  1.40000000E+00  1.08000000E+00
  1.40000000E+00  1.45900000E+00  1.41900000E+00  1.40400000E+00  1.52600000E+00
  1.51000000E+00  1.52600000E+00  1.52200000E+00  1.25000000E+00  1.09000000E+00
  1.47100000E+00  1.38000000E+00  1.52200000E+00  1.40900000E+00  1.36400000E+00
  9.60000000E-01  1.09000000E+00  1.41000000E+00  1.09000000E+00  1.41000000E+00
  1.01000000E+00  1.47100000E+00  1.09000000E+00  1.21900000E+00  1.52700000E+00
  1.09620000E+00  1.53540000E+00  1.42730000E+00  1.46430000E+00  1.01300000E+00
  1.39670000E+00  1.01900000E+00  1.46260000E+00
%FLAG ANGLE_FORCE_CONSTANT
%FORMAT(5E16.8)
  5.00000000E+01  5.00000000E+01  3.50000000E+01  6.30000000E+01  5.00000000E+01
  7.00000000E+01  8.00000000E+01  7.00000000E+01  8.00000000E+01  5.00000000E+01
  5.00000000E+01  3.50000000E+01  4.00000000E+01  5.00000000E+01  4.00000000E+01
  5.00000000E+01  3.50000000E+01  8.00000000E+01  5.00000000E+01  5.00000000E+01
  5.00000000E+01  5.00000000E+01  7.00000000E+01  3.50000000E+01  6.30000000E+01
  5.00000000E+01  5.00000000E+01  8.00000000E+01  8.00000000E+01  8.00000000E+01
  5.00000000E+01  5.00000000E+01  4.00000000E+01  5.00000000E+01  5.00000000E+01
  3.50000000E+01  4.00000000E+01  6.30000000E+01  8.00000000E+01  5.00000000E+01
  5.00000000E+01  3.50000000E+01  4.00000000E+01  5.00000000E+01  5.00000000E+01
  4.00000000E+01  6.30000000E+01  8.00000000E+01  5.00000000E+01  5.00000000E+01
  6.30000000E+01  5.00000000E+01  7.00000000E+01  5.00000000E+01  7.00000000E+01
  5.00000000E+01  5.00000000E+01  7.00000000E+01  5.00000000E+01  6.30000000E+01
  7.00000000E+01  5.00000000E+01  6.30000000E+01  5.00000000E+01  6.30000000E+01
  6.30000000E+01  6.30000000E+01  7.00000000E+01  6.30000000E+01  7.00000000E+01
  6.30000000E+01  6.30000000E+01  5.00000000E+01  6.30000000E+01  4.00000000E+01
  4.00000000E+01  5.00000000E+01  5.00000000E+01  6.30000000E+01  5.00000000E+01
  7.00000000E+01  4.00000000E+01  5.00000000E+01  6.30000000E+01  5.00000000E+01
  7.00000000E+01  8.00000000E+01  6.30000000E+01  5.00000000E+01  3.50000000E+01
  8.00000000E+01  5.00000000E+01  7.50000000E+01  7.00000000E+01  6.30000000E+01
  5.00000000E+01  8.00000000E+01  7.00000000E+01  3.50000000E+01  6.30000000E+01
  5.00000000E+01  7.00000000E+01  5.00000000E+01  6.30000000E+01  5.00000000E+01
  3.50000000E+01  5.00000000E+01  5.00000000E+01  5.50000000E+01  6.30000000E+01
  5.00000000E+01  5.00000000E+01  5.00000000E+01  5.00000000E+01  5.00000000E+01
  5.50000000E+01  3.50000000E+01  5.00000000E+01  5.00000000E+01  3.50000000E+01
  8.00000000E+01  5.00000000E+01  3.58000000E+01  4.08000000E+01  1.04940000E+02
  4.36300000E+01  4.32700000E+01  7.64500000E+01  6.03600000E+01  5.98700000E+01
  5.91500000E+01  6.27000000E+01  7.71000000E+01  8.83300000E+01  7.74400000E+01
  4.61000000E+01  6.49500000E+01  6.14000000E+01  8.66800000E+01  7.72400000E+01
  4.87000000E+01  6.51900000E+01  6.50100000E+01  6.12000000E+01  4.78000000E+01
  6.49000000E+01
%FLAG ANGLE_EQUIL_VALUE
%FORMAT(5E16.8)
  2.06018753E+00  1.91113635E+00  1.91113635E+00  1.92160833E+00  1.91113635E+00
  2.04203610E+00  2.19911580E+00  2.03505478E+00  1.91462701E+00  1.91113635E+00
  1.91113635E+00  1.91113635E+00  1.91113635E+00  1.91113635E+00  1.91113635E+00
  1.91113635E+00  1.91113635E+00  1.94080696E+00  1.91113635E+00  2.06647072E+00
  2.15024656E+00  2.09439600E+00  2.09439600E+00  2.09439600E+00  1.93906163E+00
  2.09439600E+00  2.12755727E+00  2.10137732E+00  2.14501057E+00  1.91462701E+00
  1.91113635E+00  1.91113635E+00  1.91113635E+00  1.91113635E+00  1.91113635E+00
  1.91113635E+00  1.91113635E+00  1.93906163E+00  1.91462701E+00  1.91113635E+00
  1.91113635E+00  1.91113635E+00  1.91113635E+00  1.91113635E+00  1.91113635E+00
  1.91113635E+00  1.93906163E+00  1.91462701E+00  1.91113635E+00  1.91113635E+00
  2.01760148E+00  1.91113635E+00  2.18166250E+00  2.09439600E+00  1.89717371E+00
  2.09439600E+00  2.09439600E+00  1.94778828E+00  2.14850123E+00  1.89891904E+00
  2.31779824E+00  2.09439600E+00  2.09439600E+00  2.09439600E+00  2.09439600E+00
  2.35445017E+00  2.02807346E+00  2.24449438E+00  1.85703112E+00  1.82212452E+00
  2.14151991E+00  2.09439600E+00  2.09439600E+00  1.93906163E+00  1.91113635E+00
  1.91113635E+00  1.91113635E+00  1.91113635E+00  1.98967620E+00  1.91113635E+00
  2.09439600E+00  1.91113635E+00  1.91113635E+00  1.93906163E+00  1.91113635E+00
  2.04203610E+00  2.19911580E+00  2.05948940E+00  1.91113635E+00  1.91113635E+00
  1.94080696E+00  1.91113635E+00  2.14675590E+00  2.02458280E+00  1.93906163E+00
  1.91113635E+00  2.10137732E+00  2.03505478E+00  2.09439600E+00  2.09439600E+00
  2.09439600E+00  2.09439600E+00  1.97222290E+00  2.09439600E+00  1.91113635E+00
  1.91113635E+00  1.91113635E+00  1.91113635E+00  1.89368305E+00  1.93906163E+00
  1.91113635E+00  1.91113635E+00  1.91113635E+00  1.91113635E+00  1.91113635E+00
  1.89368305E+00  1.91113635E+00  1.91113635E+00  1.91113635E+00  1.91113635E+00
  1.94080696E+00  1.91113635E+00  1.88024401E+00  1.85703112E+00  2.27172153E+00
  1.90153704E+00  1.91427794E+00  2.14501057E+00  1.94482122E+00  1.96576518E+00
  2.03645104E+00  1.89717371E+00  1.90712209E+00  1.98269488E+00  1.87832415E+00
  2.05390434E+00  1.96838317E+00  1.91113635E+00  2.13925098E+00  2.07397564E+00
  2.05163542E+00  2.04482863E+00  1.97850609E+00  1.91637234E+00  1.90747116E+00
  1.97361916E+00
%FLAG DIHEDRAL_FORCE_CONSTANT
%FORMAT(5E16.8)
  0.00000000E+00  4.50000000E-01  1.58000000E+00  5.50000000E-01  0.00000000E+00
  2.50000000E+00  2.00000000E-01  2.00000000E-01  4.00000000E-01  1.55555556E-01
  1.60000000E-01  1.50000000E-01  2.00000000E-01  2.50000000E-01  1.80000000E-01
  0.00000000E+00  0.00000000E+00  2.40000000E+00  2.70000000E-01  4.20000000E-01
  8.00000000E-01  8.00000000E-02  2.00000000E+00  3.37000000E-01  2.16000000E-01
  1.48000000E-01  1.00000000E-03  4.06000000E-01  2.89000000E-01  1.12000000E-01
  1.80000000E+00  8.00000000E-01  9.80000000E-02  2.59000000E-01  1.44000000E-01
  7.30000000E-02  3.79000000E-01  2.70000000E-02  1.42000000E-01  1.79000000E-01
  7.06000000E-01  6.20000000E-01  1.90000000E-01  7.90000000E-02  3.13000000E-01
  2.34000000E-01  3.10000000E-02  6.52500000E+00  3.00000000E+00  1.50000000E+00
  1.67500000E+00  1.52500000E+00  3.62500000E+00  3.50000000E+00  3.65000000E-01
  4.08000000E-01  8.19000000E-01  9.50000000E-02  1.70000000E-02  3.53000000E-01
  7.40000000E-02  3.10000000E-01  1.44000000E-01  1.13000000E-01  9.70000000E-02
  4.47000000E-01  5.30000000E-02  1.07000000E-01  2.30000000E-01  2.02000000E-01
  7.70000000E-02  2.24000000E-01  1.62000000E-01  7.35000000E-01  1.15000000E-01
  1.20000000E-02  2.90000000E-01  1.92000000E-01  7.00000000E-03  6.90000000E-02
  4.80000000E-02  5.50000000E-02  4.69000000E-01  1.20000000E-02  1.00000000E-01
  1.84000000E-01  7.80000000E-02  1.36700000E+00  2.22000000E-01  6.08000000E-01
  5.60000000E-02  3.90000000E-01  6.40000000E-02  4.21000000E-01  3.93000000E-01
  1.45000000E-01  0.00000000E+00  1.96000000E-01  8.30000000E-02  4.12000000E-01
  1.38000000E-01  6.09000000E-01  8.45000000E-01  8.50000000E-02  4.20000000E-02
  8.83000000E-01  6.50000000E-02  6.66000000E-01  2.46000000E-01  4.01000000E-01
  1.60000000E-01  2.50000000E-01  2.11000000E-01  4.44000000E-01  2.67000000E-01
  7.00000000E-03  1.66666667E-01  6.61000000E-01  2.18000000E-01  1.29000000E-01
  2.15400000E+00  6.47000000E-01  5.80000000E-02  8.90000000E-02  7.69000000E-01
  3.10000000E-02  4.24000000E-01  4.59000000E-01  1.54000000E-01  6.74000000E-01
  6.00000000E-03  3.15000000E-01  9.50000000E-02  6.00000000E-03  2.51000000E-01
  2.36000000E-01  1.30000000E-02  6.43000000E-01  7.90000000E-02  4.80000000E-02
  6.97000000E-01  1.19000000E-01  1.56000000E-01  1.20000000E-01  3.00000000E-01
  4.03000000E+00  3.66000000E+00  1.30000000E-01  6.80000000E-01  2.00000000E-01
  4.40000000E-01  4.60000000E-01  4.00000000E-02  5.20000000E-01  0.00000000E+00
  3.83333333E-01  2.62000000E-01  0.00000000E+00  1.07000000E+00  2.10000000E-01
  8.80000000E-01  8.00000000E-02  7.50000000E-01  1.80000000E-01  9.00000000E-01
  5.00000000E-01  2.26000000E+00  3.00000000E-02  6.50000000E-01  2.93000000E+00
  1.41000000E+00  1.00000000E-01  2.17000000E-01  7.10000000E-01  0.00000000E+00
  2.10000000E-01  1.10000000E+00  1.05000000E+01  1.00000000E+00  0.00000000E+00
%FLAG DIHEDRAL_PERIODICITY
%FORMAT(5E16.8)
  2.00000000E+00  1.00000000E+00  2.00000000E+00  3.00000000E+00  4.00000000E+00
  2.00000000E+00  1.00000000E+00  2.00000000E+00  3.00000000E+00  3.00000000E+00
  3.00000000E+00  3.00000000E+00  1.00000000E+00  2.00000000E+00  3.00000000E+00
  3.00000000E+00  1.00000000E+00  2.00000000E+00  2.00000000E+00  3.00000000E+00
  1.00000000E+00  3.00000000E+00  1.00000000E+00  1.00000000E+00  2.00000000E+00
  3.00000000E+00  4.00000000E+00  1.00000000E+00  2.00000000E+00  4.00000000E+00
  2.00000000E+00  3.00000000E+00  1.00000000E+00  2.00000000E+00  3.00000000E+00
  4.00000000E+00  1.00000000E+00  2.00000000E+00  3.00000000E+00  4.00000000E+00
  1.00000000E+00  2.00000000E+00  4.00000000E+00  1.00000000E+00  2.00000000E+00
  3.00000000E+00  4.00000000E+00  2.00000000E+00  2.00000000E+00  2.00000000E+00
  2.00000000E+00  2.00000000E+00  2.00000000E+00  2.00000000E+00  1.00000000E+00
  2.00000000E+00  3.00000000E+00  4.00000000E+00  1.00000000E+00  2.00000000E+00
  4.00000000E+00  1.00000000E+00  2.00000000E+00  3.00000000E+00  4.00000000E+00
  1.00000000E+00  2.00000000E+00  3.00000000E+00  4.00000000E+00  1.00000000E+00
  2.00000000E+00  4.00000000E+00  1.00000000E+00  2.00000000E+00  4.00000000E+00
  1.00000000E+00  2.00000000E+00  3.00000000E+00  4.00000000E+00  2.00000000E+00
  4.00000000E+00  1.00000000E+00  2.00000000E+00  4.00000000E+00  1.00000000E+00
  2.00000000E+00  4.00000000E+00  1.00000000E+00  2.00000000E+00  3.00000000E+00
  4.00000000E+00  2.00000000E+00  4.00000000E+00  1.00000000E+00  2.00000000E+00
  4.00000000E+00  2.00000000E+00  1.00000000E+00  2.00000000E+00  3.00000000E+00
  4.00000000E+00  1.00000000E+00  2.00000000E+00  3.00000000E+00  4.00000000E+00
  2.00000000E+00  4.00000000E+00  1.00000000E+00  2.00000000E+00  3.00000000E+00
  4.00000000E+00  1.00000000E+00  1.00000000E+00  2.00000000E+00  3.00000000E+00
  4.00000000E+00  3.00000000E+00  1.00000000E+00  2.00000000E+00  4.00000000E+00
  1.00000000E+00  2.00000000E+00  3.00000000E+00  4.00000000E+00  2.00000000E+00
  4.00000000E+00  1.00000000E+00  2.00000000E+00  4.00000000E+00  1.00000000E+00
  2.00000000E+00  3.00000000E+00  4.00000000E+00  1.00000000E+00  2.00000000E+00
  3.00000000E+00  4.00000000E+00  1.00000000E+00  2.00000000E+00  4.00000000E+00
  1.00000000E+00  2.00000000E+00  4.00000000E+00  3.00000000E+00  3.00000000E+00
  1.00000000E+00  2.00000000E+00  3.00000000E+00  1.00000000E+00  2.00000000E+00
  3.00000000E+00  1.00000000E+00  2.00000000E+00  3.00000000E+00  3.00000000E+00
  3.00000000E+00  2.00000000E+00  1.00000000E+00  2.00000000E+00  3.00000000E+00
  1.00000000E+00  2.00000000E+00  3.00000000E+00  1.00000000E+00  2.00000000E+00
  3.00000000E+00  1.00000000E+00  3.00000000E+00  4.00000000E+00  1.00000000E+00
  2.00000000E+00  3.00000000E+00  3.00000000E+00  2.00000000E+00  4.00000000E+00
  3.00000000E+00  2.00000000E+00  2.00000000E+00  2.00000000E+00  2.00000000E+00
%FLAG DIHEDRAL_PHASE
%FORMAT(5E16.8)
  0.00000000E+00  3.14159400E+00  3.14159400E+00  3.14159400E+00  0.00000000E+00
  3.14159400E+00  0.00000000E+00  0.00000000E+00  0.00000000E+00  0.00000000E+00
  0.00000000E+00  0.00000000E+00  3.14159400E+00  3.14159400E+00  0.00000000E+00
  0.00000000E+00  0.00000000E+00  3.14159400E+00  0.00000000E+00  0.00000000E+00
  0.00000000E+00  3.14159400E+00  0.00000000E+00  0.00000000E+00  3.14159400E+00
  0.00000000E+00  3.14159400E+00  3.14159400E+00  3.14159400E+00  0.00000000E+00
  0.00000000E+00  0.00000000E+00  0.00000000E+00  3.14159400E+00  0.00000000E+00
  0.00000000E+00  0.00000000E+00  3.14159400E+00  0.00000000E+00  0.00000000E+00
  0.00000000E+00  3.14159400E+00  0.00000000E+00  0.00000000E+00  3.14159400E+00
  0.00000000E+00  0.00000000E+00  3.14159400E+00  3.14159400E+00  3.14159400E+00
  3.14159400E+00  3.14159400E+00  3.14159400E+00  3.14159400E+00  0.00000000E+00
  0.00000000E+00  0.00000000E+00  3.14159400E+00  3.14159400E+00  3.14159400E+00
  0.00000000E+00  0.00000000E+00  3.14159400E+00  0.00000000E+00  3.14159400E+00
  0.00000000E+00  0.00000000E+00  0.00000000E+00  0.00000000E+00  0.00000000E+00
  3.14159400E+00  0.00000000E+00  0.00000000E+00  3.14159400E+00  0.00000000E+00
  3.14159400E+00  3.14159400E+00  0.00000000E+00  3.14159400E+00  3.14159400E+00
  3.14159400E+00  0.00000000E+00  3.14159400E+00  3.14159400E+00  3.14159400E+00
  3.14159400E+00  0.00000000E+00  3.14159400E+00  3.14159400E+00  3.14159400E+00
  3.14159400E+00  3.14159400E+00  0.00000000E+00  3.14159400E+00  3.14159400E+00
  0.00000000E+00  3.14159400E+00  3.14159400E+00  0.00000000E+00  3.14159400E+00
  0.00000000E+00  3.14159400E+00  3.14159400E+00  3.14159400E+00  0.00000000E+00
  3.14159400E+00  0.00000000E+00  0.00000000E+00  3.14159400E+00  0.00000000E+00
  0.00000000E+00  0.00000000E+00  0.00000000E+00  0.00000000E+00  0.00000000E+00
  0.00000000E+00  0.00000000E+00  3.14159400E+00  3.14159400E+00  0.00000000E+00
  3.14159400E+00  3.14159400E+00  0.00000000E+00  0.00000000E+00  3.14159400E+00
  3.14159400E+00  0.00000000E+00  3.14159400E+00  0.00000000E+00  0.00000000E+00
  0.00000000E+00  0.00000000E+00  0.00000000E+00  3.14159400E+00  0.00000000E+00
  0.00000000E+00  0.00000000E+00  0.00000000E+00  3.14159400E+00  0.00000000E+00
  3.14159400E+00  3.14159400E+00  0.00000000E+00  0.00000000E+00  0.00000000E+00
  0.00000000E+00  3.14159400E+00  0.00000000E+00  0.00000000E+00  3.14159400E+00
  3.14159400E+00  3.14159400E+00  0.00000000E+00  0.00000000E+00  3.14159400E+00
  0.00000000E+00  3.14159400E+00  3.14159400E+00  3.14159400E+00  3.14159400E+00
  3.14159400E+00  0.00000000E+00  0.00000000E+00  0.00000000E+00  0.00000000E+00
  0.00000000E+00  0.00000000E+00  3.14159400E+00  3.14159400E+00  0.00000000E+00
  3.14159400E+00  0.00000000E+00  0.00000000E+00  3.14159400E+00  3.14159400E+00
  0.00000000E+00  3.14159400E+00  3.14159400E+00  3.14159400E+00  3.14159400E+00
%FLAG SCEE_SCALE_FACTOR
%FORMAT(5E16.8)
  1.20000000E+00  1.20000000E+00  1.20000000E+00  1.20000000E+00  1.20000000E+00
  1.20000000E+00  1.20000000E+00  1.20000000E+00  1.20000000E+00  1.20000000E+00
  1.20000000E+00  1.20000000E+00  1.20000000E+00  1.20000000E+00  1.20000000E+00
  1.20000000E+00  1.20000000E+00  1.20000000E+00  1.20000000E+00  1.20000000E+00
  1.20000000E+00  1.20000000E+00  1.20000000E+00  1.20000000E+00  1.20000000E+00
  1.20000000E+00  1.20000000E+00  1.20000000E+00  1.20000000E+00  1.20000000E+00
  1.20000000E+00  1.20000000E+00  1.20000000E+00  1.20000000E+00  1.20000000E+00
  1.20000000E+00  1.20000000E+00  1.20000000E+00  1.20000000E+00  1.20000000E+00
  1.20000000E+00  1.20000000E+00  1.20000000E+00  1.20000000E+00  1.20000000E+00
  1.20000000E+00  1.20000000E+00  1.20000000E+00  1.20000000E+00  1.20000000E+00
  1.20000000E+00  1.20000000E+00  1.20000000E+00  1.20000000E+00  1.20000000E+00
  1.20000000E+00  1.20000000E+00  1.20000000E+00  1.20000000E+00  1.20000000E+00
  1.20000000E+00  1.20000000E+00  1.20000000E+00  1.20000000E+00  1.20000000E+00
  1.20000000E+00  1.20000000E+00  1.20000000E+00  1.20000000E+00  1.20000000E+00
  1.20000000E+00  1.20000000E+00  1.20000000E+00  1.20000000E+00  1.20000000E+00
  1.20000000E+00  1.20000000E+00  1.20000000E+00  1.20000000E+00  1.20000000E+00
  1.20000000E+00  1.20000000E+00  1.20000000E+00  1.20000000E+00  1.20000000E+00
  1.20000000E+00  1.20000000E+00  1.20000000E+00  1.20000000E+00  1.20000000E+00
  1.20000000E+00  1.20000000E+00  1.20000000E+00  1.20000000E+00  1.20000000E+00
  1.20000000E+00  1.20000000E+00  1.20000000E+00  1.20000000E+00  1.20000000E+00
  1.20000000E+00  1.20000000E+00  1.20000000E+00  1.20000000E+00  1.20000000E+00
  1.20000000E+00  1.20000000E+00  1.20000000E+00  1.20000000E+00  1.20000000E+00
  1.20000000E+00  1.20000000E+00  1.20000000E+00  1.20000000E+00  1.20000000E+00
  1.20000000E+00  1.20000000E+00  1.20000000E+00  1.20000000E+00  1.20000000E+00
  1.20000000E+00  1.20000000E+00  1.20000000E+00  1.20000000E+00  1.20000000E+00
  1.20000000E+00  1.20000000E+00  1.20000000E+00  1.20000000E+00  1.20000000E+00
  1.20000000E+00  1.20000000E+00  1.20000000E+00  1.20000000E+00  1.20000000E+00
  1.20000000E+00  1.20000000E+00  1.20000000E+00  1.20000000E+00  1.20000000E+00
  1.20000000E+00  1.20000000E+00  1.20000000E+00  1.20000000E+00  1.20000000E+00
  1.20000000E+00  1.20000000E+00  1.20000000E+00  1.20000000E+00  1.20000000E+00
  1.20000000E+00  1.20000000E+00  1.20000000E+00  1.20000000E+00  1.20000000E+00
  1.20000000E+00  1.20000000E+00  1.20000000E+00  1.20000000E+00  1.20000000E+00
  1.20000000E+00  1.20000000E+00  1.20000000E+00  1.20000000E+00  1.20000000E+00
  1.20000000E+00  1.20000000E+00  1.20000000E+00  1.20000000E+00  1.20000000E+00
  1.20000000E+00  1.20000000E+00  1.20000000E+00  1.20000000E+00  1.20000000E+00
  1.20000000E+00  0.00000000E+00  0.00000000E+00  0.00000000E+00  0.00000000E+00
%FLAG SCNB_SCALE_FACTOR
%FORMAT(5E16.8)
  2.00000000E+00  2.00000000E+00  2.00000000E+00  2.00000000E+00  2.00000000E+00
  2.00000000E+00  2.00000000E+00  2.00000000E+00  2.00000000E+00  2.00000000E+00
  2.00000000E+00  2.00000000E+00  2.00000000E+00  2.00000000E+00  2.00000000E+00
  2.00000000E+00  2.00000000E+00  2.00000000E+00  2.00000000E+00  2.00000000E+00
  2.00000000E+00  2.00000000E+00  2.00000000E+00  2.00000000E+00  2.00000000E+00
  2.00000000E+00  2.00000000E+00  2.00000000E+00  2.00000000E+00  2.00000000E+00
  2.00000000E+00  2.00000000E+00  2.00000000E+00  2.00000000E+00  2.00000000E+00
  2.00000000E+00  2.00000000E+00  2.00000000E+00  2.00000000E+00  2.00000000E+00
  2.00000000E+00  2.00000000E+00  2.00000000E+00  2.00000000E+00  2.00000000E+00
  2.00000000E+00  2.00000000E+00  2.00000000E+00  2.00000000E+00  2.00000000E+00
  2.00000000E+00  2.00000000E+00  2.00000000E+00  2.00000000E+00  2.00000000E+00
  2.00000000E+00  2.00000000E+00  2.00000000E+00  2.00000000E+00  2.00000000E+00
  2.00000000E+00  2.00000000E+00  2.00000000E+00  2.00000000E+00  2.00000000E+00
  2.00000000E+00  2.00000000E+00  2.00000000E+00  2.00000000E+00  2.00000000E+00
  2.00000000E+00  2.00000000E+00  2.00000000E+00  2.00000000E+00  2.00000000E+00
  2.00000000E+00  2.00000000E+00  2.00000000E+00  2.00000000E+00  2.00000000E+00
  2.00000000E+00  2.00000000E+00  2.00000000E+00  2.00000000E+00  2.00000000E+00
  2.00000000E+00  2.00000000E+00  2.00000000E+00  2.00000000E+00  2.00000000E+00
  2.00000000E+00  2.00000000E+00  2.00000000E+00  2.00000000E+00  2.00000000E+00
  2.00000000E+00  2.00000000E+00  2.00000000E+00  2.00000000E+00  2.00000000E+00
  2.00000000E+00  2.00000000E+00  2.00000000E+00  2.00000000E+00  2.00000000E+00
  2.00000000E+00  2.00000000E+00  2.00000000E+00  2.00000000E+00  2.00000000E+00
  2.00000000E+00  2.00000000E+00  2.00000000E+00  2.00000000E+00  2.00000000E+00
  2.00000000E+00  2.00000000E+00  2.00000000E+00  2.00000000E+00  2.00000000E+00
  2.00000000E+00  2.00000000E+00  2.00000000E+00  2.00000000E+00  2.00000000E+00
  2.00000000E+00  2.00000000E+00  2.00000000E+00  2.00000000E+00  2.00000000E+00
  2.00000000E+00  2.00000000E+00  2.00000000E+00  2.00000000E+00  2.00000000E+00
  2.00000000E+00  2.00000000E+00  2.00000000E+00  2.00000000E+00  2.00000000E+00
  2.00000000E+00  2.00000000E+00  2.00000000E+00  2.00000000E+00  2.00000000E+00
  2.00000000E+00  2.00000000E+00  2.00000000E+00  2.00000000E+00  2.00000000E+00
  2.00000000E+00  2.00000000E+00  2.00000000E+00  2.00000000E+00  2.00000000E+00
  2.00000000E+00  2.00000000E+00  2.00000000E+00  2.00000000E+00  2.00000000E+00
  2.00000000E+00  2.00000000E+00  2.00000000E+00  2.00000000E+00  2.00000000E+00
  2.00000000E+00  2.00000000E+00  2.00000000E+00  2.00000000E+00  2.00000000E+00
  2.00000000E+00  2.00000000E+00  2.00000000E+00  2.00000000E+00  2.00000000E+00
  2.00000000E+00  0.00000000E+00  0.00000000E+00  0.00000000E+00  0.00000000E+00
%FLAG SOLTY
%FORMAT(5E16.8)
  0.00000000E+00  0.00000000E+00  0.00000000E+00  0.00000000E+00  0.00000000E+00
  0.00000000E+00  0.00000000E+00  0.00000000E+00  0.00000000E+00  0.00000000E+00
  0.00000000E+00  0.00000000E+00  0.00000000E+00  0.00000000E+00  0.00000000E+00
  0.00000000E+00  0.00000000E+00  0.00000000E+00  0.00000000E+00  0.00000000E+00
  0.00000000E+00  0.00000000E+00  0.00000000E+00  0.00000000E+00  0.00000000E+00
  0.00000000E+00  0.00000000E+00  0.00000000E+00  0.00000000E+00  0.00000000E+00
  0.00000000E+00  0.00000000E+00  0.00000000E+00  0.00000000E+00  0.00000000E+00
  0.00000000E+00  0.00000000E+00  0.00000000E+00  0.00000000E+00  0.00000000E+00
  0.00000000E+00  0.00000000E+00  0.00000000E+00
%FLAG LENNARD_JONES_ACOEF
%FORMAT(5E16.8)
  9.44293233E+05  2.12601181E+03  1.39982777E-01  9.95480466E+05  2.56678134E+03
  1.04308023E+06  2.01791425E+04  9.14716912E+00  2.27401052E+04  2.01823541E+02
  6.20665997E+04  5.94667300E+01  6.78771368E+04  8.79040886E+02  3.25969625E+03
  8.96776989E+04  1.07193646E+02  9.71708117E+04  1.41077189E+03  4.98586848E+03
  7.51607703E+03  7.44975864E+05  1.40467023E+03  7.91544157E+05  1.45985502E+04
  4.66922514E+04  6.82786631E+04  5.81803229E+05  0.00000000E+00  0.00000000E+00
  0.00000000E+00  0.00000000E+00  0.00000000E+00  0.00000000E+00  0.00000000E+00
  0.00000000E+00  8.82619071E+05  2.27577561E+03  9.24822270E+05  2.01619733E+04
  6.01816484E+04  8.61541883E+04  7.01803794E+05  0.00000000E+00  8.19971662E+05
  6.06829342E+05  1.02595236E+03  6.47841731E+05  1.12780457E+04  3.69471530E+04
  5.44261042E+04  4.71003287E+05  0.00000000E+00  5.74393458E+05  3.79876399E+05
  6.58473870E+04  6.63368273E+01  7.18621074E+04  9.55000044E+02  3.50301067E+03
  5.34045360E+03  4.96707306E+04  0.00000000E+00  6.37148278E+04  3.93690817E+04
  3.76169105E+03  7.91627154E+04  8.90987508E+01  8.59947003E+04  1.21014911E+03
  4.33325458E+03  6.55825601E+03  6.00750218E+04  0.00000000E+00  7.62451550E+04
  4.77908183E+04  4.64559155E+03  5.71629601E+03  2.01562190E+06  5.97860700E+03
  2.09861767E+06  4.93469320E+04  1.42791446E+05  2.02461849E+05  1.61587928E+06
  0.00000000E+00  1.86068943E+06  1.32911052E+06  1.50848032E+05  1.79647996E+05
  4.19430400E+06  5.46147253E+04  4.90239937E+01  5.98885646E+04  7.50063100E+02
  2.82099197E+03  4.33325458E+03  4.09427581E+04  0.00000000E+00  5.30987710E+04
  3.23283631E+04  3.03448006E+03  3.76169105E+03  1.26338489E+05  2.43828624E+03
  8.11497350E+05  1.94008400E+03  8.53193737E+05  1.78601506E+04  5.42099106E+04
  7.80065389E+04  6.42430744E+05  0.00000000E+00  7.56463928E+05  5.24402060E+05
  5.74592031E+04  6.89371259E+04  1.72268611E+06  4.77581094E+04  6.96551276E+05
  5.99897901E+05  1.11043914E+03  6.37913494E+05  1.16505362E+04  3.74148715E+04
  5.47803235E+04  4.68011805E+05  0.00000000E+00  5.65590822E+05  3.78641356E+05
  3.98127143E+04  4.81820985E+04  1.30335373E+06  3.27958584E+04  5.17507491E+05
  3.76435470E+05  9.84684600E+05  2.53456440E+03  1.03184851E+06  2.24743442E+04
  6.71095195E+04  9.60832554E+04  7.82881336E+05  0.00000000E+00  9.14863930E+05
  6.40712560E+05  7.10513128E+04  8.50294791E+04  2.07618920E+06  5.92092559E+04
  8.43969952E+05  6.30925504E+05  1.02073671E+06  8.28144322E+05  2.07087856E+03
  8.68941273E+05  1.86340379E+04  5.59994575E+04  8.03350760E+04  6.57317882E+05
  0.00000000E+00  7.70426106E+05  5.37402784E+05  5.93150590E+04  7.10545648E+04
  1.75078538E+06  4.93787016E+04  7.10207765E+05  5.29641935E+05  8.59569453E+05
  7.23647490E+05  8.14793385E+05  1.71845864E+03  8.61458248E+05  1.68636880E+04
  5.26221036E+04  7.63694318E+04  6.40405042E+05  0.00000000E+00  7.63791460E+05
  5.20462539E+05  5.58833643E+04  6.73331169E+04  1.74955513E+06  4.62444096E+04
  7.01106848E+05  5.15491878E+05  8.52084164E+05  7.16178718E+05  7.02078680E+05
  5.18220260E+05  1.06722540E+03  5.48478208E+05  1.06013455E+04  3.32551339E+04
  4.83404799E+04  4.06752008E+05  0.00000000E+00  4.86295154E+05  3.30296908E+05
  3.53289728E+04  4.26018274E+04  1.11514486E+06  2.92109361E+04  4.46121722E+05
  3.27367585E+05  5.42502534E+05  4.55871651E+05  4.46307018E+05  2.83662575E+05
  9.33217616E+04  1.05103439E+02  1.01372942E+05  1.42703904E+03  5.10916075E+03
  7.73223568E+03  7.08225575E+04  0.00000000E+00  8.98799076E+04  5.63419090E+04
  5.47737117E+03  6.73963720E+03  2.11768029E+05  4.43530964E+03  8.12662403E+04
  5.68021765E+04  1.00235148E+05  8.37616145E+04  7.93773615E+04  5.02224902E+04
  7.94617769E+03  1.88178855E+03  1.37574453E-01  2.26409483E+03  8.45902425E+00
  5.38411501E+01  9.64710720E+01  1.24900897E+03  0.00000000E+00  2.00740581E+03
  9.14858779E+02  5.99788431E+01  8.03166617E+01  5.25501858E+03  4.44659845E+01
  1.71458823E+03  9.87857350E+02  2.23577481E+03  1.82809059E+03  1.52360475E+03
  9.46795083E+02  9.47421632E+01  1.34728399E-01  1.36919347E+05  1.25820601E+02
  1.49995867E+05  1.90132449E+03  7.11465296E+03  1.09119307E+04  1.02772745E+05
  0.00000000E+00  1.32990267E+05  8.12116828E+04  7.65043029E+03  9.47658423E+03
  3.16107989E+05  6.15221292E+03  1.19678640E+05  8.23334768E+04  1.48296311E+05
  1.23700101E+05  1.15988709E+05  7.32782884E+04  1.11735374E+04  1.14048677E+02
  1.55205818E+04  7.42364908E+05  1.52094041E+03  7.85890042E+05  1.51483906E+04
  4.75728872E+04  6.91773368E+04  5.82511344E+05  0.00000000E+00  6.96790708E+05
  4.72934643E+05  5.05435913E+04  6.09592309E+04  1.59822324E+06  4.17832254E+04
  6.39146293E+05  4.68810254E+05  7.77325489E+05  6.53164318E+05  6.39277296E+05
  4.06293937E+05  7.18637611E+04  1.34949100E+03  1.04820861E+05  5.81935564E+05
%FLAG LENNARD_JONES_BCOEF
%FORMAT(5E16.8)
  8.01323529E+02  2.09604198E+01  9.37598976E-02  7.36907417E+02  2.06278363E+01
  6.75612247E+02  6.45756063E+01  7.57919667E-01  6.13981767E+01  3.56012899E+00
  1.13252061E+02  1.93248820E+00  1.06076943E+02  7.42992380E+00  1.43076527E+01
  1.36131731E+02  2.59456373E+00  1.26919150E+02  9.41257003E+00  1.76949863E+01
  2.17257828E+01  7.50714425E+02  1.79702257E+01  6.93079947E+02  5.79323581E+01
  1.03606917E+02  1.25287818E+02  6.99746810E+02  0.00000000E+00  0.00000000E+00
  0.00000000E+00  0.00000000E+00  0.00000000E+00  0.00000000E+00  0.00000000E+00
  0.00000000E+00  6.53361429E+02  1.82891803E+01  5.99015525E+02  5.44372326E+01
  9.40505980E+01  1.12529845E+02  6.14502845E+02  0.00000000E+00  5.31102864E+02
  6.77220874E+02  1.53505284E+01  6.26720080E+02  5.08951803E+01  9.21192136E+01
  1.11805549E+02  6.29300710E+02  0.00000000E+00  5.55666448E+02  5.64885984E+02
  1.15327881E+02  2.01792524E+00  1.07908863E+02  7.65648470E+00  1.46638650E+01
  1.81057616E+01  1.05648788E+02  0.00000000E+00  9.56748258E+01  9.40124296E+01
  1.50233639E+01  1.26451907E+02  2.33864085E+00  1.18043746E+02  8.61880722E+00
  1.63092814E+01  2.00642027E+01  1.16187983E+02  0.00000000E+00  1.04660679E+02
  1.03580945E+02  1.66953734E+01  1.85196588E+01  1.28923404E+03  3.87070358E+01
  1.17824605E+03  1.11203892E+02  1.89165096E+02  2.25248294E+02  1.21753341E+03
  0.00000000E+00  1.04466382E+03  1.10369829E+03  1.92224012E+02  2.09772716E+02
  2.04800000E+03  1.05031585E+02  1.73473071E+00  9.85097219E+01  6.78541827E+00
  1.31591746E+01  1.63092814E+01  9.59185913E+01  0.00000000E+00  8.73413012E+01
  8.51921330E+01  1.34932874E+01  1.50233639E+01  1.75916126E+02  1.20953369E+01
  6.48597119E+02  1.74825352E+01  5.95658566E+02  5.30440533E+01  9.24130897E+01
  1.10856114E+02  6.08686716E+02  0.00000000E+00  5.28126496E+02  5.49675335E+02
  9.40636541E+01  1.03031170E+02  1.04065628E+03  8.57562161E+01  5.24668528E+02
  6.15165511E+02  1.45902714E+01  5.68167388E+02  4.72594809E+01  8.46911674E+01
  1.02477444E+02  5.73100668E+02  0.00000000E+00  5.03752097E+02  5.15240418E+02
  8.63723599E+01  9.50181887E+01  9.98521059E+02  7.83922976E+01  4.98871431E+02
  4.69350655E+02  7.30206155E+02  2.04226110E+01  6.69494459E+02  6.08139360E+01
  1.05087646E+02  1.25742895E+02  6.86742760E+02  0.00000000E+00  5.93591333E+02
  6.20970728E+02  1.06903901E+02  1.16947855E+02  1.16762437E+03  9.75893223E+01
  5.90251928E+02  5.62969425E+02  6.63431737E+02  6.32509514E+02  1.74362885E+01
  5.80298384E+02  5.23034358E+01  9.06710490E+01  1.08599877E+02  5.94361918E+02
  0.00000000E+00  5.14507756E+02  5.37163627E+02  9.22586543E+01  1.00976572E+02
  1.01275239E+03  8.41771980E+01  5.11427129E+02  4.87196412E+02  5.75038595E+02
  4.98353106E+02  7.37244936E+02  1.86646683E+01  6.78964813E+02  5.84691813E+01
  1.03284425E+02  1.24425821E+02  6.89389438E+02  0.00000000E+00  6.01987997E+02
  6.21191325E+02  1.05230082E+02  1.15508247E+02  1.18966487E+03  9.57256348E+01
  5.97113873E+02  5.64804067E+02  6.72777963E+02  5.82583725E+02  6.77820248E+02
  4.79881022E+02  1.20051375E+01  4.42179058E+02  3.78372494E+01  6.70144433E+01
  8.07968711E+01  4.48425641E+02  0.00000000E+00  3.92047541E+02  4.03897559E+02
  6.82892701E+01  7.49896074E+01  7.75201844E+02  6.20954392E+01  3.88758656E+02
  3.67361018E+02  4.38146883E+02  3.79365004E+02  4.41089616E+02  2.87011518E+02
  1.48987394E+02  2.75631727E+00  1.39078880E+02  1.01563736E+01  1.92174397E+01
  2.36414051E+01  1.36896727E+02  0.00000000E+00  1.23310980E+02  1.22044000E+02
  1.96722815E+01  2.18216157E+01  2.47150236E+02  1.77023375E+01  1.21392023E+02
  1.11953944E+02  1.37787728E+02  1.18970742E+02  1.36094315E+02  8.83545880E+01
  2.57122925E+01  1.76168249E+01  8.30374121E-02  1.73073921E+01  6.51126010E-01
  1.64271443E+00  2.19888978E+00  1.51381989E+01  0.00000000E+00  1.53451874E+01
  1.29497639E+01  1.71416196E+00  1.98360701E+00  3.24191875E+01  1.47593342E+00
  1.46824710E+01  1.22938581E+01  1.71355763E+01  1.46352678E+01  1.57004457E+01
  1.01016461E+01  2.33785449E+00  7.34107347E-02  2.58405233E+02  4.31824675E+00
  2.42242668E+02  1.67864823E+01  3.24719551E+01  4.02144725E+01  2.36133213E+02
  0.00000000E+00  2.14778698E+02  2.09807371E+02  3.32906603E+01  3.70514656E+01
  4.32373832E+02  2.98534933E+01  2.10937708E+02  1.92999406E+02  2.39980817E+02
  2.07020576E+02  2.35564773E+02  1.52819395E+02  4.36584025E+01  3.67283814E+00
  7.36779156E+01  6.90894667E+02  1.72393904E+01  6.36687196E+02  5.44062826E+01
  9.64152120E+01  1.16264660E+02  6.45512297E+02  0.00000000E+00  5.64503554E+02
  5.81361517E+02  9.82532117E+01  1.07902982E+02  1.11633519E+03  8.93335697E+01
  5.59732167E+02  5.28811054E+02  6.30880403E+02  5.46227977E+02  6.35011160E+02
  4.13185639E+02  1.27133996E+02  1.45069425E+01  2.19857570E+02  5.94825035E+02
%FLAG BONDS_INC_HYDROGEN
%FORMAT(10I8)
    1152    1149       1    1158    1155       3    1161    1155       3    1080
    1077       1    1086    1083       3    1092    1089       7    1095    1089
       7    1101    1098       7    1104    1098       7    1110    1107       9
    1113    1107       9    1119    1116      11    1128    1125      11    1131
    1125      11    1137    1134      11    1140    1134      11    1032    1029
       1    1038    1035       3    1044    1041      16    1050    1047      18
    1053    1047      18    1056    1047      18    1062    1059      18    1065
    1059      18    1068    1059      18     975     972       1     981     978
       3     987     984      20     990     984      20     996     993      16
    1002     999      18    1005     999      18    1008     999      18    1014
    1011      18    1017    1011      18    1020    1011      18     903     900
       1     909     906       3     915     912      18     918     912      18
     927     924      25     933     930      27     942     939      30     948
     945      30     954     951      30     960     957      30     873     870
       1     879     876       3     885     882      18     888     882      18
     891     882      18     816     813       1     822     819       3     828
     825      16     834     831      18     837     831      18     840     831
      18     846     843      20     849     843      20     855     852      18
     858     852      18     861     852      18     756     753       1     762
     759       3     768     765      18     771     765      18     780     777
      30     786     783      30     792     789      30     798     795      30
     804     801      30     711     708       1     717     714       3     723
     720      20     726     720      20     732     729      20     735     729
      20     654     651       1     660     657       3     666     663       7
     669     663       7     675     672       7     678     672       7     684
     681       7     687     681       7     693     690      40     696     690
      40     624     621       1     630     627       3     636     633      18
     639     633      18     642     633      18     594     591       1     600
     597       3     606     603      18     609     603      18     612     603
      18     543     540       1     549     546       3     555     552      20
     558     552      20     564     561      20     567     561      20     579
     576       1     582     576       1     522     519       1     528     525
       3     531     525       3     477     474       1     483     480       3
     489     486      20     492     486      20     498     495      20     501
     495      20     420     417       1     426     423       3     432     429
      20     435     429      20     441     438      16     447     444      18
     450     444      18     453     444      18     459     456      18     462
     456      18     465     456      18     357     354       1     363     360
       3     369     366      18     372     366      18     381     378      30
     387     384      30     396     393      46     402     399      30     408
     405      30     324     321       1     330     327       3     336     333
      47     339     333      47     345     342      46     291     288       1
     297     294       3     303     300      47     306     300      47     312
     309      46     243     240       1     249     246       3     255     252
      16     261     258      18     264     258      18     267     258      18
     273     270      18     276     270      18     279     270      18     207
     204       1     213     210       3     219     216      20     222     216
      20     174     171       1     180     177       3     186     183      47
     189     183      47     195     192      46     132     129       1     138
     135       3     144     141      49     150     147      18     153     147
      18     156     147      18     162     159      46      72      69       1
      78      75       3      84      81      18      87      81      18      96
      93      30     102      99      30     108     105      30     114     111
      30     120     117      30      30      27       1      36      33       3
      42      39      49      48      45      18      51      45      18      54
      45      18      60      57      46       3       0      51       6       0
      51       9       0      51      15      12      53      18      12      53
    1332    1554      56    1332    1557      56    1329    1548      56    1329
    1551      56    1326    1542      56    1326    1545      56    1323    1536
      56    1323    1539      56    1320    1530      56    1320    1533      56
    1317    1524      56    1317    1527      56    1314    1518      56    1314
    1521      56    1311    1512      56    1311    1515      56    1308    1506
      56    1308    1509      56    1305    1500      56    1305    1503      56
    1302    1494      56    1302    1497      56    1299    1488      56    1299
    1491      56    1296    1482      56    1296    1485      56    1293    1476
      56    1293    1479      56    1290    1470      56    1290    1473      56
    1287    1464      56    1287    1467      56    1278    1458      56    1278
    1461      56    1272    1452      56    1272    1455      56    1269    1446
      56    1269    1449      56    1263    1440      56    1263    1443      56
    1260    1434      56    1260    1437      56    1257    1431      60    1248
    1425      56    1248    1428      56    1242    1419      56    1242    1422
      56    1239    1413      56    1239    1416      56    1233    1407      56
    1233    1410      56    1230    1401      56    1230    1404      56    1227
    1398      60    1218    1392      56    1218    1395      56    1212    1386
      56    1212    1389      56    1209    1380      56    1209    1383      56
    1203    1374      56    1203    1377      56    1200    1368      56    1200
    1371      56    1197    1365      60    1188    1359      62    1188    1362
      62    1185    1356      56    1182    1350      56    1182    1353      56
    1179    1344      56    1179    1347      56
%FLAG BONDS_WITHOUT_HYDROGEN
%FORMAT(10I8)
    1155    1149       2    1164    1155       4    1167    1164       5    1170
    1164       5    1083    1077       2    1089    1083       6    1098    1089
       8    1107    1098       8    1116    1107      10    1122    1116      12
    1125    1122      12    1134    1122      12    1143    1083       4    1143
    1149      13    1146    1143      14    1035    1029       2    1041    1035
      15    1047    1041      17    1059    1041      17    1071    1035       4
    1071    1077      13    1074    1071      14     978     972       2     984
     978      19     993     984      21     999     993      17    1011     993
      17    1023     978       4    1023    1029      13    1026    1023      14
     906     900       2     912     906      22     921     912      23     924
     921      24     930     924      26     936     930      28     939     936
      29     945     939      31     951     945      31     957     951      31
     963     921      32     963     936      33     963     957      34     966
     906       4     966     972      13     969     966      14     876     870
       2     882     876      22     894     876       4     894     900      13
     897     894      14     819     813       2     825     819      15     831
     825      17     843     825      21     852     843      35     864     819
       4     864     870      13     867     864      14     759     753       2
     765     759      22     774     765      36     777     774      31     783
     777      31     789     783      31     795     789      31     801     774
      31     801     795      31     807     759       4     807     813      13
     810     807      14     714     708       2     720     714      19     729
     720      37     738     729      38     741     738      39     744     738
      39     747     714       4     747     753      13     750     747      14
     657     651       2     663     657       6     672     663       8     681
     672       8     690     681       8     699     690      41     699    1173
      42     702     657       4     702     708      13     705     702      14
     627     621       2     633     627      22     645     627       4     645
     651      13     648     645      14     597     591       2     603     597
      22     615     597       4     615     621      13     618     615      14
     546     540       2     552     546      19     561     552      37     570
     561      43     573     570      14     576     570      13     585     546
       4     585     591      13     588     585      14     525     519       2
     534     525       4     534     540      13     537     534      14     480
     474       2     486     480      19     495     486      37     504     495
      38     507     504      39     510     504      39     513     480       4
     513     519      13     516     513      14     423     417       2     429
     423      19     438     429      21     444     438      17     456     438
      17     468     423       4     468     474      13     471     468      14
     360     354       2     366     360      22     375     366      36     378
     375      31     384     378      31     390     384      44     393     390
      45     399     390      44     405     375      31     405     399      31
     411     360       4     411     417      13     414     411      14     327
     321       2     333     327      19     342     333      48     348     327
       4     348     354      13     351     348      14     294     288       2
     300     294      19     309     300      48     315     294       4     315
     321      13     318     315      14     246     240       2     252     246
      15     258     252      17     270     252      17     282     246       4
     282     288      13     285     282      14     210     204       2     216
     210      19     225     216      38     228     225      39     231     225
      39     234     210       4     234     240      13     237     234      14
     177     171       2     183     177      19     192     183      48     198
     177       4     198     204      13     201     198      14     135     129
       2     141     135      15     147     141      17     159     141      50
     165     135       4     165     171      13     168     165      14      75
      69       2      81      75      22      90      81      36      93      90
      31      99      93      31     105      99      31     111     105      31
     117      90      31     117     111      31     123      75       4     123
     129      13     126     123      14      33      27       2      39      33
      15      45      39      17      57      39      50      63      33       4
      63      69      13      66      63      14      12       0      52      21
      12       4      21      27      13      24      21      14    1335    1338
      54    1335    1341      54    1332    1335      55    1329    1332      57
    1326    1329      57    1323    1326      57    1320    1323      57    1317
    1320      57    1314    1317      57    1311    1314      57    1308    1311
      57    1305    1308      57    1302    1305      57    1299    1302      57
    1296    1299      57    1293    1296      57    1290    1293      57    1287
    1290      57    1281    1284      54    1281    1287      55    1278    1281
      55    1275    1278      58    1272    1275      58    1269    1272      57
    1266    1269      58    1263    1266      58    1260    1263      57    1257
    1260      59    1251    1254      54    1251    1257      61    1248    1251
      55    1245    1248      58    1242    1245      58    1239    1242      57
    1236    1239      58    1233    1236      58    1230    1233      57    1227
    1230      59    1221    1224      54    1221    1227      61    1218    1221
      55    1215    1218      58    1212    1215      58    1209    1212      57
    1206    1209      58    1203    1206      58    1200    1203      57    1197
    1200      59    1191    1194      54    1191    1197      61    1185    1188
      63    1185    1191      55    1182    1185      57    1179    1182      57
    1173    1176      54    1173    1179      55
%FLAG ANGLES_INC_HYDROGEN
%FORMAT(10I8)
    1155    1149    1152       1    1158    1155    1149       2    1161    1155
    1149       2    1161    1155    1158       3    1164    1155    1158       5
    1164    1155    1161       5    1083    1077    1080       1    1086    1083
    1077       2    1089    1083    1086      10    1092    1089    1083      11
    1095    1089    1083      11    1095    1089    1092      12    1098    1089
    1092      14    1098    1089    1095      14    1101    1098    1089      14
    1104    1098    1089      14    1104    1098    1101      12    1107    1098
    1101      14    1107    1098    1104      14    1110    1107    1098      16
    1113    1107    1098      16    1113    1107    1110      17    1116    1107
    1110      19    1116    1107    1113      19    1119    1116    1107      20
    1122    1116    1119      22    1128    1125    1122      22    1131    1125
    1122      22    1131    1125    1128      24    1137    1134    1122      22
    1140    1134    1122      22    1140    1134    1137      24    1143    1083
    1086       5    1143    1149    1152      26    1035    1029    1032       1
    1038    1035    1029       2    1041    1035    1038      31    1044    1041
    1035      32    1047    1041    1044      34    1050    1047    1041      35
    1053    1047    1041      35    1053    1047    1050      36    1056    1047
    1041      35    1056    1047    1050      36    1056    1047    1053      36
    1059    1041    1044      34    1062    1059    1041      35    1065    1059
    1041      35    1065    1059    1062      36    1068    1059    1041      35
    1068    1059    1062      36    1068    1059    1065      36    1071    1035
    1038       5    1071    1077    1080      26     978     972     975       1
     981     978     972       2     984     978     981      40     987     984
     978      41     990     984     978      41     990     984     987      42
     993     984     987      44     993     984     990      44     996     993
     984      45     999     993     996      34    1002     999     993      35
    1005     999     993      35    1005     999    1002      36    1008     999
     993      35    1008     999    1002      36    1008     999    1005      36
    1011     993     996      34    1014    1011     993      35    1017    1011
     993      35    1017    1011    1014      36    1020    1011     993      35
    1020    1011    1014      36    1020    1011    1017      36    1023     978
     981       5    1023    1029    1032      26     906     900     903       1
     909     906     900       2     912     906     909      49     915     912
     906      50     918     912     906      50     918     912     915      36
     921     912     915      52     921     912     918      52     927     924
     921      54     930     924     927      56     933     930     924      57
     936     930     933      59     942     939     936      62     945     939
     942      64     948     945     939      64     951     945     948      64
     954     951     945      64     957     951     954      64     960     957
     951      64     963     957     960      73     966     906     909       5
     966     972     975      26     876     870     873       1     879     876
     870       2     882     876     879      49     885     882     876      50
     888     882     876      50     888     882     885      36     891     882
     876      50     891     882     885      36     891     882     888      36
     894     876     879       5     894     900     903      26     819     813
     816       1     822     819     813       2     825     819     822      31
     828     825     819      32     831     825     828      34     834     831
     825      35     837     831     825      35     837     831     834      36
     840     831     825      35     840     831     834      36     840     831
     837      36     843     825     828      45     846     843     825      44
     849     843     825      44     849     843     846      42     852     843
     846      77     852     843     849      77     855     852     843      78
     858     852     843      78     858     852     855      36     861     852
     843      78     861     852     855      36     861     852     858      36
     864     819     822       5     864     870     873      26     759     753
     756       1     762     759     753       2     765     759     762      49
     768     765     759      50     771     765     759      50     771     765
     768      36     774     765     768      80     774     765     771      80
     780     777     774      64     783     777     780      64     786     783
     777      64     789     783     786      64     792     789     783      64
     795     789     792      64     798     795     789      64     801     795
     798      64     804     801     774      64     804     801     795      64
     807     759     762       5     807     813     816      26     714     708
     711       1     717     714     708       2     720     714     717      40
     723     720     714      41     726     720     714      41     726     720
     723      42     729     720     723      83     729     720     726      83
     732     729     720      83     735     729     720      83     735     729
     732      42     738     729     732      85     738     729     735      85
     747     714     717       5     747     753     756      26     657     651
     654       1     660     657     651       2     663     657     660      10
     666     663     657      11     669     663     657      11     669     663
     666      12     672     663     666      14     672     663     669      14
     675     672     663      14     678     672     663      14     678     672
     675      12     681     672     675      14     681     672     678      14
     684     681     672      14     687     681     672      14     687     681
     684      12     690     681     684      14     690     681     687      14
     693     690     681      89     696     690     681      89     696     690
     693      90     699     690     693      92     699     690     696      92
     702     657     660       5     702     708     711      26     627     621
     624       1     630     627     621       2     633     627     630      49
     636     633     627      50     639     633     627      50     639     633
     636      36     642     633     627      50     642     633     636      36
     642     633     639      36     645     627     630       5     645     651
     654      26     597     591     594       1     600     597     591       2
     603     597     600      49     606     603     597      50     609     603
     597      50     609     603     606      36     612     603     597      50
     612     603     606      36     612     603     609      36     615     597
     600       5     615     621     624      26     546     540     543       1
     549     546     540       2     552     546     549      40     555     552
     546      41     558     552     546      41     558     552     555      42
     561     552     555      83     561     552     558      83     564     561
     552      83     567     561     552      83     567     561     564      42
     570     561     564      96     570     561     567      96     579     576
     570      26     582     576     570      26     582     576     579      99
     585     546     549       5     585     591     594      26     525     519
     522       1     528     525     519       2     531     525     519       2
     531     525     528       3     534     525     528       5     534     525
     531       5     534     540     543      26     480     474     477       1
     483     480     474       2     486     480     483      40     489     486
     480      41     492     486     480      41     492     486     489      42
     495     486     489      83     495     486     492      83     498     495
     486      83     501     495     486      83     501     495     498      42
     504     495     498      85     504     495     501      85     513     480
     483       5     513     519     522      26     423     417     420       1
     426     423     417       2     429     423     426      40     432     429
     423      41     435     429     423      41     435     429     432      42
     438     429     432      44     438     429     435      44     441     438
     429      45     444     438     441      34     447     444     438      35
     450     444     438      35     450     444     447      36     453     444
     438      35     453     444     447      36     453     444     450      36
     456     438     441      34     459     456     438      35     462     456
     438      35     462     456     459      36     465     456     438      35
     465     456     459      36     465     456     462      36     468     423
     426       5     468     474     477      26     360     354     357       1
     363     360     354       2     366     360     363      49     369     366
     360      50     372     366     360      50     372     366     369      36
     375     366     369      80     375     366     372      80     381     378
     375      64     384     378     381      64     387     384     378      64
     390     384     387     101     396     393     390     103     402     399
     390     101     405     399     402      64     408     405     375      64
     408     405     399      64     411     360     363       5     411     417
     420      26     327     321     324       1     330     327     321       2
     333     327     330      40     336     333     327     105     339     333
     327     105     339     333     336     106     342     333     336     108
     342     333     339     108     345     342     333     109     348     327
     330       5     348     354     357      26     294     288     291       1
     297     294     288       2     300     294     297      40     303     300
     294     105     306     300     294     105     306     300     303     106
     309     300     303     108     309     300     306     108     312     309
     300     109     315     294     297       5     315     321     324      26
     246     240     243       1     249     246     240       2     252     246
     249      31     255     252     246      32     258     252     255      34
     261     258     252      35     264     258     252      35     264     258
     261      36     267     258     252      35     267     258     261      36
     267     258     264      36     270     252     255      34     273     270
     252      35     276     270     252      35     276     270     273      36
     279     270     252      35     279     270     273      36     279     270
     276      36     282     246     249       5     282     288     291      26
     210     204     207       1     213     210     204       2     216     210
     213      40     219     216     210      41     222     216     210      41
     222     216     219      42     225     216     219      85     225     216
     222      85     234     210     213       5     234     240     243      26
     177     171     174       1     180     177     171       2     183     177
     180      40     186     183     177     105     189     183     177     105
     189     183     186     106     192     183     186     108     192     183
     189     108     195     192     183     109     198     177     180       5
     198     204     207      26     135     129     132       1     138     135
     129       2     141     135     138      31     144     141     135     111
     147     141     144     112     150     147     141      35     153     147
     141      35     153     147     150      36     156     147     141      35
     156     147     150      36     156     147     153      36     159     141
     144     114     162     159     141     116     165     135     138       5
     165     171     174      26      75      69      72       1      78      75
      69       2      81      75      78      49      84      81      75      50
      87      81      75      50      87      81      84      36      90      81
      84      80      90      81      87      80      96      93      90      64
      99      93      96      64     102      99      93      64     105      99
     102      64     108     105      99      64     111     105     108      64
     114     111     105      64     117     111     114      64     120     117
      90      64     120     117     111      64     123      75      78       5
     123     129     132      26      33      27      30       1      36      33
      27       2      39      33      36      31      42      39      33     111
      45      39      42     112      48      45      39      35      51      45
      39      35      51      45      48      36      54      45      39      35
      54      45      48      36      54      45      51      36      57      39
      42     114      60      57      39     116      63      33      36       5
      63      69      72      26       6       0       3     117       9       0
       3     117       9       0       6     117      12       0       3     118
      12       0       6     118      12       0       9     118      15      12
       0     119      18      12       0     119      18      12      15     120
      21      12      15     122      21      12      18     122      21      27
      30      26    1554    1332    1557     123    1548    1329    1551     123
    1542    1326    1545     123    1536    1323    1539     123    1530    1320
    1533     123    1524    1317    1527     123    1518    1314    1521     123
    1512    1311    1515     123    1506    1308    1509     123    1500    1305
    1503     123    1494    1302    1497     123    1488    1299    1491     123
    1482    1296    1485     123    1476    1293    1479     123    1470    1290
    1473     123    1464    1287    1467     123    1458    1278    1461     123
    1452    1272    1455     123    1446    1269    1449     123    1440    1263
    1443     123    1434    1260    1437     123    1425    1248    1428     123
    1419    1242    1422     123    1413    1239    1416     123    1407    1233
    1410     123    1401    1230    1404     123    1392    1218    1395     123
    1386    1212    1389     123    1380    1209    1383     123    1374    1203
    1377     123    1368    1200    1371     123    1359    1188    1362     124
    1350    1182    1353     123    1344    1179    1347     123    1335    1332
    1554     126    1335    1332    1557     126    1332    1329    1548     127
    1332    1329    1551     127    1329    1326    1542     127    1329    1326
    1545     127    1329    1332    1554     127    1329    1332    1557     127
    1326    1323    1536     127    1326    1323    1539     127    1326    1329
    1548     127    1326    1329    1551     127    1323    1320    1530     127
    1323    1320    1533     127    1323    1326    1542     127    1323    1326
    1545     127    1320    1317    1524     127    1320    1317    1527     127
    1320    1323    1536     127    1320    1323    1539     127    1317    1314
    1518     127    1317    1314    1521     127    1317    1320    1530     127
    1317    1320    1533     127    1314    1311    1512     127    1314    1311
    1515     127    1314    1317    1524     127    1314    1317    1527     127
    1311    1308    1506     127    1311    1308    1509     127    1311    1314
    1518     127    1311    1314    1521     127    1308    1305    1500     127
    1308    1305    1503     127    1308    1311    1512     127    1308    1311
    1515     127    1305    1302    1494     127    1305    1302    1497     127
    1305    1308    1506     127    1305    1308    1509     127    1302    1299
    1488     127    1302    1299    1491     127    1302    1305    1500     127
    1302    1305    1503     127    1299    1296    1482     127    1299    1296
    1485     127    1299    1302    1494     127    1299    1302    1497     127
    1296    1293    1476     127    1296    1293    1479     127    1296    1299
    1488     127    1296    1299    1491     127    1293    1290    1470     127
    1293    1290    1473     127    1293    1296    1482     127    1293    1296
    1485     127    1290    1287    1464     127    1290    1287    1467     127
    1290    1293    1476     127    1290    1293    1479     127    1287    1290
    1470     127    1287    1290    1473     127    1281    1278    1458     126
    1281    1278    1461     126    1281    1287    1464     126    1281    1287
    1467     126    1275    1272    1452     132    1275    1272    1455     132
    1275    1278    1458     132    1275    1278    1461     132    1272    1269
    1446     127    1272    1269    1449     127    1269    1272    1452     127
    1269    1272    1455     127    1266    1263    1440     132    1266    1263
    1443     132    1266    1269    1446     132    1266    1269    1449     132
    1263    1260    1434     127    1263    1260    1437     127    1260    1257
    1431     136    1260    1263    1440     127    1260    1263    1443     127
    1257    1260    1434     138    1257    1260    1437     138    1251    1248
    1425     126    1251    1248    1428     126    1251    1257    1431     141
    1245    1242    1419     132    1245    1242    1422     132    1245    1248
    1425     132    1245    1248    1428     132    1242    1239    1413     127
    1242    1239    1416     127    1239    1242    1419     127    1239    1242
    1422     127    1236    1233    1407     132    1236    1233    1410     132
    1236    1239    1413     132    1236    1239    1416     132    1233    1230
    1401     127    1233    1230    1404     127    1230    1227    1398     136
    1230    1233    1407     127    1230    1233    1410     127    1227    1230
    1401     138    1227    1230    1404     138    1221    1218    1392     126
    1221    1218    1395     126    1221    1227    1398     141    1215    1212
    1386     132    1215    1212    1389     132    1215    1218    1392     132
    1215    1218    1395     132    1212    1209    1380     127    1212    1209
    1383     127    1209    1212    1386     127    1209    1212    1389     127
    1206    1203    1374     132    1206    1203    1377     132    1206    1209
    1380     132    1206    1209    1383     132    1203    1200    1368     127
    1203    1200    1371     127    1200    1197    1365     136    1200    1203
    1374     127    1200    1203    1377     127    1197    1200    1368     138
    1197    1200    1371     138    1191    1185    1356     126    1191    1197
    1365     141    1188    1185    1356     144    1185    1182    1350     127
    1185    1182    1353     127    1185    1188    1359     145    1185    1188
    1362     145    1182    1179    1344     127    1182    1179    1347     127
    1182    1185    1356     127    1179    1182    1350     127    1179    1182
    1353     127    1173    1179    1344     126    1173    1179    1347     126
%FLAG ANGLES_WITHOUT_HYDROGEN
%FORMAT(10I8)
    1164    1155    1149       4    1167    1164    1155       6    1170    1164
    1155       6    1170    1164    1167       7    1083    1143    1149       8
    1089    1083    1077       9    1098    1089    1083      13    1107    1098
    1089      15    1116    1107    1098      18    1122    1116    1107      21
    1125    1122    1116      23    1134    1122    1116      23    1134    1122
    1125      23    1143    1083    1077       4    1143    1083    1089      25
    1143    1149    1155      27    1146    1143    1083      28    1146    1143
    1149      29    1035    1071    1077       8    1041    1035    1029      30
    1047    1041    1035      33    1059    1041    1035      33    1059    1041
    1047      37    1071    1035    1029       4    1071    1035    1041      38
    1071    1077    1083      27    1074    1071    1035      28    1074    1071
    1077      29     978    1023    1029       8     984     978     972      39
     993     984     978      43     999     993     984      46    1011     993
     984      46    1011     993     999      37    1023     978     972       4
    1023     978     984      47    1023    1029    1035      27    1026    1023
     978      28    1026    1023    1029      29     906     966     972       8
     912     906     900      48     921     912     906      51     924     921
     912      53     930     924     921      55     936     930     924      58
     936     963     921      60     939     936     930      61     945     939
     936      63     951     945     939      65     957     951     945      65
     957     963     921      66     957     963     936      67     963     921
     912      68     963     921     924      69     963     936     930      70
     963     936     939      71     963     957     951      72     966     906
     900       4     966     906     912      74     966     972     978      27
     969     966     906      28     969     966     972      29     876     894
     900       8     882     876     870      48     894     876     870       4
     894     876     882      74     894     900     906      27     897     894
     876      28     897     894     900      29     819     864     870       8
     825     819     813      30     831     825     819      33     843     825
     819      75     843     825     831      46     852     843     825      76
     864     819     813       4     864     819     825      38     864     870
     876      27     867     864     819      28     867     864     870      29
     759     807     813       8     765     759     753      48     774     765
     759      79     777     774     765      81     783     777     774      65
     789     783     777      65     795     789     783      65     795     801
     774      65     801     774     765      81     801     774     777      65
     801     795     789      65     807     759     753       4     807     759
     765      74     807     813     819      27     810     807     759      28
     810     807     813      29     714     747     753       8     720     714
     708      39     729     720     714      82     738     729     720      84
     741     738     729      86     744     738     729      86     744     738
     741      87     747     714     708       4     747     714     720      47
     747     753     759      27     750     747     714      28     750     747
     753      29     657     702     708       8     663     657     651       9
     672     663     657      13     681     672     663      15     690     681
     672      15     690     699    1173      88     699     690     681      91
     699    1173    1176      93     699    1173    1179      94     702     657
     651       4     702     657     663      25     702     708     714      27
     705     702     657      28     705     702     708      29     627     645
     651       8     633     627     621      48     645     627     621       4
     645     627     633      74     645     651     657      27     648     645
     627      28     648     645     651      29     597     615     621       8
     603     597     591      48     615     597     591       4     615     597
     603      74     615     621     627      27     618     615     597      28
     618     615     621      29     546     585     591       8     552     546
     540      39     561     552     546      82     570     561     552      95
     573     570     561      97     576     570     561      98     576     570
     573      29     585     546     540       4     585     546     552      47
     585     591     597      27     588     585     546      28     588     585
     591      29     525     534     540       8     534     525     519       4
     534     540     546      27     537     534     525      28     537     534
     540      29     480     513     519       8     486     480     474      39
     495     486     480      82     504     495     486      84     507     504
     495      86     510     504     495      86     510     504     507      87
     513     480     474       4     513     480     486      47     513     519
     525      27     516     513     480      28     516     513     519      29
     423     468     474       8     429     423     417      39     438     429
     423      43     444     438     429      46     456     438     429      46
     456     438     444      37     468     423     417       4     468     423
     429      47     468     474     480      27     471     468     423      28
     471     468     474      29     360     411     417       8     366     360
     354      48     375     366     360      79     378     375     366      81
     384     378     375      65     390     384     378     100     393     390
     384     102     399     390     384     104     399     390     393     102
     399     405     375      65     405     375     366      81     405     375
     378      65     405     399     390     100     411     360     354       4
     411     360     366      74     411     417     423      27     414     411
     360      28     414     411     417      29     327     348     354       8
     333     327     321      39     342     333     327     107     348     327
     321       4     348     327     333      47     348     354     360      27
     351     348     327      28     351     348     354      29     294     315
     321       8     300     294     288      39     309     300     294     107
     315     294     288       4     315     294     300      47     315     321
     327      27     318     315     294      28     318     315     321      29
     246     282     288       8     252     246     240      30     258     252
     246      33     270     252     246      33     270     252     258      37
     282     246     240       4     282     246     252      38     282     288
     294      27     285     282     246      28     285     282     288      29
     210     234     240       8     216     210     204      39     225     216
     210     110     228     225     216      86     231     225     216      86
     231     225     228      87     234     210     204       4     234     210
     216      47     234     240     246      27     237     234     210      28
     237     234     240      29     177     198     204       8     183     177
     171      39     192     183     177     107     198     177     171       4
     198     177     183      47     198     204     210      27     201     198
     177      28     201     198     204      29     135     165     171       8
     141     135     129      30     147     141     135      33     159     141
     135     113     159     141     147     115     165     135     129       4
     165     135     141      38     165     171     177      27     168     165
     135      28     168     165     171      29      75     123     129       8
      81      75      69      48      90      81      75      79      93      90
      81      81      99      93      90      65     105      99      93      65
     111     105      99      65     111     117      90      65     117      90
      81      81     117      90      93      65     117     111     105      65
     123      75      69       4     123      75      81      74     123     129
     135      27     126     123      75      28     126     123     129      29
      33      63      69       8      39      33      27      30      45      39
      33      33      57      39      33     113      57      39      45     115
      63      33      27       4      63      33      39      38      63      69
      75      27      66      63      33      28      66      63      69      29
      12      21      27       8      21      12       0     121      21      27
      33      27      24      21      12      28      24      21      27      29
    1338    1335    1341     125    1332    1335    1338     128    1332    1335
    1341     128    1329    1332    1335     129    1326    1329    1332     130
    1323    1326    1329     130    1320    1323    1326     130    1317    1320
    1323     130    1314    1317    1320     130    1311    1314    1317     130
    1308    1311    1314     130    1305    1308    1311     130    1302    1305
    1308     130    1299    1302    1305     130    1296    1299    1302     130
    1293    1296    1299     130    1290    1293    1296     130    1287    1290
    1293     130    1284    1281    1287     128    1281    1287    1290     129
    1278    1281    1284     128    1278    1281    1287     131    1275    1278
    1281     133    1272    1275    1278     134    1269    1272    1275     135
    1266    1269    1272     135    1263    1266    1269     134    1260    1263
    1266     135    1257    1260    1263     137    1254    1251    1257     139
    1251    1257    1260     140    1248    1251    1254     128    1248    1251
    1257     142    1245    1248    1251     133    1242    1245    1248     134
    1239    1242    1245     135    1236    1239    1242     135    1233    1236
    1239     134    1230    1233    1236     135    1227    1230    1233     137
    1224    1221    1227     139    1221    1227    1230     140    1218    1221
    1224     128    1218    1221    1227     142    1215    1218    1221     133
    1212    1215    1218     134    1209    1212    1215     135    1206    1209
    1212     135    1203    1206    1209     134    1200    1203    1206     135
    1197    1200    1203     137    1194    1191    1197     139    1191    1197
    1200     140    1188    1185    1191     143    1185    1191    1194     128
    1185    1191    1197     142    1182    1185    1188     146    1182    1185
    1191     129    1179    1182    1185     130    1176    1173    1179     128
    1173    1179    1182     129
%FLAG DIHEDRALS_INC_HYDROGEN
%FORMAT(10I8)
    1158    1155    1149    1152       1    1161    1155    1149    1152       1
    1164    1155    1149    1152       1    1167    1164    1155    1158       1
    1167    1164    1155    1161       1    1170    1164    1155    1158       1
    1170    1164    1155    1161       1    1083    1143    1149    1152       6
    1086    1083    1077    1080       1    1086    1083    1143    1149       1
    1089    1083    1077    1080       1    1092    1089    1083    1077      10
    1092    1089    1083    1086      10    1095    1089    1083    1077      10
    1095    1089    1083    1086      10    1098    1089    1083    1086      10
    1101    1098    1089    1083      11    1101    1098    1089    1092      12
    1101    1098    1089    1095      12    1104    1098    1089    1083      11
    1104    1098    1089    1092      12    1104    1098    1089    1095      12
    1107    1098    1089    1092      11    1107    1098    1089    1095      11
    1110    1107    1098    1089      10    1110    1107    1098    1101      10
    1110    1107    1098    1104      10    1113    1107    1098    1089      10
    1113    1107    1098    1101      10    1113    1107    1098    1104      10
    1116    1107    1098    1101      10    1116    1107    1098    1104      10
    1119    1116    1107    1098      16    1119    1116    1107    1110      16
    1119    1116    1107    1113      16    1122    1116    1107    1110      16
    1122    1116    1107    1113      16    1125    1122    1116    1119      18
    1125    1122   -1116    1119       5    1128    1125    1122    1116      18
    1128    1125   -1122    1116       5    1131    1125    1122    1116      18
    1131    1125   -1122    1116       5    1134    1122    1116    1119      18
    1134    1122   -1116    1119       5    1134    1122    1125    1128      18
    1134    1122   -1125    1128       5    1134    1122    1125    1131      18
    1134    1122   -1125    1131       5    1137    1134    1122    1116      18
    1137    1134   -1122    1116       5    1137    1134    1122    1125      18
    1137    1134   -1122    1125       5    1140    1134    1122    1116      18
    1140    1134   -1122    1116       5    1140    1134    1122    1125      18
    1140    1134   -1122    1125       5    1143    1083    1077    1080       1
    1143    1083    1089    1092      10    1143    1083    1089    1095      10
    1143    1149    1155    1158       1    1143    1149    1155    1161       1
    1146    1143    1083    1086      21    1146    1143   -1083    1086       1
    1146    1143   -1083    1086      22    1146    1143    1149    1152      23
    1146    1143   -1149    1152       6    1035    1071    1077    1080       6
    1038    1035    1029    1032       1    1038    1035    1071    1077       1
    1041    1035    1029    1032       1    1044    1041    1035    1029      10
    1044    1041    1035    1038      10    1047    1041    1035    1038      10
    1050    1047    1041    1035      11    1050    1047    1041    1044      12
    1053    1047    1041    1035      11    1053    1047    1041    1044      12
    1056    1047    1041    1035      11    1056    1047    1041    1044      12
    1059    1041    1035    1038      10    1059    1041    1047    1050      11
    1059    1041    1047    1053      11    1059    1041    1047    1056      11
    1062    1059    1041    1035      11    1062    1059    1041    1044      12
    1062    1059    1041    1047      11    1065    1059    1041    1035      11
    1065    1059    1041    1044      12    1065    1059    1041    1047      11
    1068    1059    1041    1035      11    1068    1059    1041    1044      12
    1068    1059    1041    1047      11    1071    1035    1029    1032       1
    1071    1035    1041    1044      10    1071    1077    1083    1086       1
    1074    1071    1035    1038      21    1074    1071   -1035    1038       1
    1074    1071   -1035    1038      22    1074    1071    1077    1080      23
    1074    1071   -1077    1080       6     978    1023    1029    1032       6
     981     978     972     975       1     981     978    1023    1029       1
     984     978     972     975       1     987     984     978     972      10
     987     984     978     981      10     990     984     978     972      10
     990     984     978     981      10     993     984     978     981      10
     996     993     984     978      11     996     993     984     987      12
     996     993     984     990      12     999     993     984     987      11
     999     993     984     990      11    1002     999     993     984      11
    1002     999     993     996      12    1005     999     993     984      11
    1005     999     993     996      12    1008     999     993     984      11
    1008     999     993     996      12    1011     993     984     987      11
    1011     993     984     990      11    1011     993     999    1002      11
    1011     993     999    1005      11    1011     993     999    1008      11
    1014    1011     993     984      11    1014    1011     993     996      12
    1014    1011     993     999      11    1017    1011     993     984      11
    1017    1011     993     996      12    1017    1011     993     999      11
    1020    1011     993     984      11    1020    1011     993     996      12
    1020    1011     993     999      11    1023     978     972     975       1
    1023     978     984     987      10    1023     978     984     990      10
    1023    1029    1035    1038       1    1026    1023     978     981      21
    1026    1023    -978     981       1    1026    1023    -978     981      22
    1026    1023    1029    1032      23    1026    1023   -1029    1032       6
     906     966     972     975       6     909     906     900     903       1
     909     906     966     972       1     912     906     900     903       1
     915     912     906     900      10     915     912     906     909      10
     918     912     906     900      10     918     912     906     909      10
     921     912     906     909      10     924     921     912     915       1
     924     921     912     918       1     927     924     921     912      48
     933     930     924     921      50     933     930     924     927      50
     936     930     924     927      50     939     936     930     933      52
     942     939     936     930      53     948     945     939     936      53
     948     945     939     942      53     951     945     939     942      53
     954     951     945     939      53     954     951     945     948      53
     957     951     945     948      53     960     957     951     945      53
     960     957     951     954      53     960     957     963     921      54
     960     957     963     936      54     963     921     912     915       1
     963     921     912     918       1     963     921     924     927      48
     963     936     930     933      52     963     936     939     942      53
     963     957     951     954      53     966     906     900     903       1
     966     906     912     915      10     966     906     912     918      10
     966     972     978     981       1     969     966     906     909      21
     969     966    -906     909       1     969     966    -906     909      22
     969     966     972     975      23     969     966    -972     975       6
     876     894     900     903       6     879     876     870     873       1
     879     876     894     900       1     882     876     870     873       1
     885     882     876     870      10     885     882     876     879      10
     888     882     876     870      10     888     882     876     879      10
     891     882     876     870      10     891     882     876     879      10
     894     876     870     873       1     894     876     882     885      10
     894     876     882     888      10     894     876     882     891      10
     894     900     906     909       1     897     894     876     879      21
     897     894    -876     879       1     897     894    -876     879      22
     897     894     900     903      23     897     894    -900     903       6
     819     864     870     873       6     822     819     813     816       1
     822     819     864     870       1     825     819     813     816       1
     828     825     819     813      10     828     825     819     822      10
     831     825     819     822      10     834     831     825     819      11
     834     831     825     828      12     837     831     825     819      11
     837     831     825     828      12     840     831     825     819      11
     840     831     825     828      12     843     825     819     822      10
     843     825     831     834      11     843     825     831     837      11
     843     825     831     840      11     846     843     825     819      11
     846     843     825     828      12     846     843     825     831      11
     849     843     825     819      11     849     843     825     828      12
     849     843     825     831      11     852     843     825     828      11
     855     852     843     825      11     855     852     843     846      12
     855     852     843     849      12     858     852     843     825      11
     858     852     843     846      12     858     852     843     849      12
     861     852     843     825      11     861     852     843     846      12
     861     852     843     849      12     864     819     813     816       1
     864     819     825     828      10     864     870     876     879       1
     867     864     819     822      21     867     864    -819     822       1
     867     864    -819     822      22     867     864     870     873      23
     867     864    -870     873       6     759     807     813     816       6
     762     759     753     756       1     762     759     807     813       1
     765     759     753     756       1     768     765     759     753      10
     768     765     759     762      10     771     765     759     753      10
     771     765     759     762      10     774     765     759     762      10
     777     774     765     768       1     777     774     765     771       1
     780     777     774     765      53     786     783     777     774      53
     786     783     777     780      53     789     783     777     780      53
     792     789     783     777      53     792     789     783     786      53
     795     789     783     786      53     798     795     789     783      53
     798     795     789     792      53     798     795     801     774      53
     801     774     765     768       1     801     774     765     771       1
     801     774     777     780      53     801     795     789     792      53
     804     801     774     765      53     804     801     774     777      53
     804     801     795     789      53     804     801     795     798      53
     807     759     753     756       1     807     759     765     768      10
     807     759     765     771      10     807     813     819     822       1
     810     807     759     762      21     810     807    -759     762       1
     810     807    -759     762      22     810     807     813     816      23
     810     807    -813     816       6     714     747     753     756       6
     717     714     708     711       1     717     714     747     753       1
     720     714     708     711       1     723     720     714     708      10
     723     720     714     717      10     726     720     714     708      10
     726     720     714     717      10     729     720     714     717      10
     732     729     720     714      11     732     729     720     723      12
     732     729     720     726      12     735     729     720     714      11
     735     729     720     723      12     735     729     720     726      12
     738     729     720     723      10     738     729     720     726      10
     741     738     729     732       1     741     738     729     735       1
     744     738     729     732       1     744     738     729     735       1
     747     714     708     711       1     747     714     720     723      10
     747     714     720     726      10     747     753     759     762       1
     750     747     714     717      21     750     747    -714     717       1
     750     747    -714     717      22     750     747     753     756      23
     750     747    -753     756       6     657     702     708     711       6
     660     657     651     654       1     660     657     702     708       1
     663     657     651     654       1     666     663     657     651      10
     666     663     657     660      10     669     663     657     651      10
     669     663     657     660      10     672     663     657     660      10
     675     672     663     657      11     675     672     663     666      12
     675     672     663     669      12     678     672     663     657      11
     678     672     663     666      12     678     672     663     669      12
     681     672     663     666      11     681     672     663     669      11
     684     681     672     663      11     684     681     672     675      12
     684     681     672     678      12     687     681     672     663      11
     687     681     672     675      12     687     681     672     678      12
     690     681     672     675      11     690     681     672     678      11
     693     690     681     672      10     693     690     681     684      10
     693     690     681     687      10     693     690     699    1173      10
     696     690     681     672      10     696     690     681     684      10
     696     690     681     687      10     696     690     699    1173      10
     699     690     681     684      10     699     690     681     687      10
     699    1173    1179    1344      97     699    1173    1179    1347      97
     702     657     651     654       1     702     657     663     666      10
     702     657     663     669      10     702     708     714     717       1
     705     702     657     660      21     705     702    -657     660       1
     705     702    -657     660      22     705     702     708     711      23
     705     702    -708     711       6     627     645     651     654       6
     630     627     621     624       1     630     627     645     651       1
     633     627     621     624       1     636     633     627     621      10
     636     633     627     630      10     639     633     627     621      10
     639     633     627     630      10     642     633     627     621      10
     642     633     627     630      10     645     627     621     624       1
     645     627     633     636      10     645     627     633     639      10
     645     627     633     642      10     645     651     657     660       1
     648     645     627     630      21     648     645    -627     630       1
     648     645    -627     630      22     648     645     651     654      23
     648     645    -651     654       6     597     615     621     624       6
     600     597     591     594       1     600     597     615     621       1
     603     597     591     594       1     606     603     597     591      10
     606     603     597     600      10     609     603     597     591      10
     609     603     597     600      10     612     603     597     591      10
     612     603     597     600      10     615     597     591     594       1
     615     597     603     606      10     615     597     603     609      10
     615     597     603     612      10     615     621     627     630       1
     618     615     597     600      21     618     615    -597     600       1
     618     615    -597     600      22     618     615     621     624      23
     618     615    -621     624       6     546     585     591     594       6
     549     546     540     543       1     549     546     585     591       1
     552     546     540     543       1     555     552     546     540      10
     555     552     546     549      10     558     552     546     540      10
     558     552     546     549      10     561     552     546     549      10
     564     561     552     546      11     564     561     552     555      12
     564     561     552     558      12     567     561     552     546      11
     567     561     552     555      12     567     561     552     558      12
     570     561     552     555      10     570     561     552     558      10
     573     570     561     564      21     573     570    -561     564       1
     573     570    -561     564      22     573     570     561     567      21
     573     570    -561     567       1     573     570    -561     567      22
     576     570     561     564       1     576     570     561     567       1
     579     576     570     561       6     579     576     570     573      23
     579     576    -570     573       6     582     576     570     561       6
     582     576     570     573      23     582     576    -570     573       6
     585     546     540     543       1     585     546     552     555      10
     585     546     552     558      10     585     591     597     600       1
     588     585     546     549      21     588     585    -546     549       1
     588     585    -546     549      22     588     585     591     594      23
     588     585    -591     594       6     525     534     540     543       6
     528     525     519     522       1     528     525     534     540       1
     531     525     519     522       1     531     525     534     540       1
     534     525     519     522       1     534     540     546     549       1
     537     534     525     528      21     537     534    -525     528       1
     537     534    -525     528      22     537     534     525     531      21
     537     534    -525     531       1     537     534    -525     531      22
     537     534     540     543      23     537     534    -540     543       6
     480     513     519     522       6     483     480     474     477       1
     483     480     513     519       1     486     480     474     477       1
     489     486     480     474      10     489     486     480     483      10
     492     486     480     474      10     492     486     480     483      10
     495     486     480     483      10     498     495     486     480      11
     498     495     486     489      12     498     495     486     492      12
     501     495     486     480      11     501     495     486     489      12
     501     495     486     492      12     504     495     486     489      10
     504     495     486     492      10     507     504     495     498       1
     507     504     495     501       1     510     504     495     498       1
     510     504     495     501       1     513     480     474     477       1
     513     480     486     489      10     513     480     486     492      10
     513     519     525     528       1     513     519     525     531       1
     516     513     480     483      21     516     513    -480     483       1
     516     513    -480     483      22     516     513     519     522      23
     516     513    -519     522       6     423     468     474     477       6
     426     423     417     420       1     426     423     468     474       1
     429     423     417     420       1     432     429     423     417      10
     432     429     423     426      10     435     429     423     417      10
     435     429     423     426      10     438     429     423     426      10
     441     438     429     423      11     441     438     429     432      12
     441     438     429     435      12     444     438     429     432      11
     444     438     429     435      11     447     444     438     429      11
     447     444     438     441      12     450     444     438     429      11
     450     444     438     441      12     453     444     438     429      11
     453     444     438     441      12     456     438     429     432      11
     456     438     429     435      11     456     438     444     447      11
     456     438     444     450      11     456     438     444     453      11
     459     456     438     429      11     459     456     438     441      12
     459     456     438     444      11     462     456     438     429      11
     462     456     438     441      12     462     456     438     444      11
     465     456     438     429      11     465     456     438     441      12
     465     456     438     444      11     468     423     417     420       1
     468     423     429     432      10     468     423     429     435      10
     468     474     480     483       1     471     468     423     426      21
     471     468    -423     426       1     471     468    -423     426      22
     471     468     474     477      23     471     468    -474     477       6
     360     411     417     420       6     363     360     354     357       1
     363     360     411     417       1     366     360     354     357       1
     369     366     360     354      10     369     366     360     363      10
     372     366     360     354      10     372     366     360     363      10
     375     366     360     363      10     378     375     366     369       1
     378     375     366     372       1     381     378     375     366      53
     387     384     378     375      53     387     384     378     381      53
     390     384     378     381      53     393     390     384     387      53
     396     393     390     384      17     396     393    -390     384     106
     396     393    -390     384      16     396     393    -390     384     107
     399     390     384     387      53     399     390     393     396      17
     399     390    -393     396     106     399     390    -393     396      16
     399     390    -393     396     107     402     399     390     384      53
     402     399     390     393      53     402     399     405     375      53
     405     375     366     369       1     405     375     366     372       1
     405     375     378     381      53     408     405     375     366      53
     408     405     375     378      53     408     405     399     390      53
     408     405     399     402      53     411     360     354     357       1
     411     360     366     369      10     411     360     366     372      10
     411     417     423     426       1     414     411     360     363      21
     414     411    -360     363       1     414     411    -360     363      22
     414     411     417     420      23     414     411    -417     420       6
     327     348     354     357       6     330     327     321     324       1
     330     327     348     354       1     333     327     321     324       1
     336     333     327     321      10     336     333     327     330      10
     339     333     327     321      10     339     333     327     330      10
     342     333     327     330     112     342     333    -327     330      16
     345     342     333     327     113     345     342    -333     327     114
     345     342    -333     327     115     345     342    -333     327     116
     345     342     333     336     117     345     342     333     339     117
     348     327     321     324       1     348     327     333     336      10
     348     327     333     339      10     348     354     360     363       1
     351     348     327     330      21     351     348    -327     330       1
     351     348    -327     330      22     351     348     354     357      23
     351     348    -354     357       6     294     315     321     324       6
     297     294     288     291       1     297     294     315     321       1
     300     294     288     291       1     303     300     294     288      10
     303     300     294     297      10     306     300     294     288      10
     306     300     294     297      10     309     300     294     297     112
     309     300    -294     297      16     312     309     300     294     113
     312     309    -300     294     114     312     309    -300     294     115
     312     309    -300     294     116     312     309     300     303     117
     312     309     300     306     117     315     294     288     291       1
     315     294     300     303      10     315     294     300     306      10
     315     321     327     330       1     318     315     294     297      21
     318     315    -294     297       1     318     315    -294     297      22
     318     315     321     324      23     318     315    -321     324       6
     246     282     288     291       6     249     246     240     243       1
     249     246     282     288       1     252     246     240     243       1
     255     252     246     240      10     255     252     246     249      10
     258     252     246     249      10     261     258     252     246      11
     261     258     252     255      12     264     258     252     246      11
     264     258     252     255      12     267     258     252     246      11
     267     258     252     255      12     270     252     246     249      10
     270     252     258     261      11     270     252     258     264      11
     270     252     258     267      11     273     270     252     246      11
     273     270     252     255      12     273     270     252     258      11
     276     270     252     246      11     276     270     252     255      12
     276     270     252     258      11     279     270     252     246      11
     279     270     252     255      12     279     270     252     258      11
     282     246     240     243       1     282     246     252     255      10
     282     288     294     297       1     285     282     246     249      21
     285     282    -246     249       1     285     282    -246     249      22
     285     282     288     291      23     285     282    -288     291       6
     210     234     240     243       6     213     210     204     207       1
     213     210     234     240       1     216     210     204     207       1
     219     216     210     204      10     219     216     210     213      10
     222     216     210     204      10     222     216     210     213      10
     225     216     210     213      10     228     225     216     219       1
     228     225     216     222       1     231     225     216     219       1
     231     225     216     222       1     234     210     204     207       1
     234     210     216     219      10     234     210     216     222      10
     234     240     246     249       1     237     234     210     213      21
     237     234    -210     213       1     237     234    -210     213      22
     237     234     240     243      23     237     234    -240     243       6
     177     198     204     207       6     180     177     171     174       1
     180     177     198     204       1     183     177     171     174       1
     186     183     177     171      10     186     183     177     180      10
     189     183     177     171      10     189     183     177     180      10
     192     183     177     180     112     192     183    -177     180      16
     195     192     183     177     113     195     192    -183     177     114
     195     192    -183     177     115     195     192    -183     177     116
     195     192     183     186     117     195     192     183     189     117
     198     177     171     174       1     198     177     183     186      10
     198     177     183     189      10     198     204     210     213       1
     201     198     177     180      21     201     198    -177     180       1
     201     198    -177     180      22     201     198     204     207      23
     201     198    -204     207       6     135     165     171     174       6
     138     135     129     132       1     138     135     165     171       1
     141     135     129     132       1     144     141     135     129      10
     144     141     135     138      10     147     141     135     138      10
     150     147     141     135      11     150     147     141     144      10
     153     147     141     135      11     153     147     141     144      10
     156     147     141     135      11     156     147     141     144      10
     159     141     135     138     112     159     141    -135     138      16
     159     141     147     150     112     159     141    -147     150      16
     159     141     147     153     112     159     141    -147     153      16
     159     141     147     156     112     159     141    -147     156      16
     162     159     141     135     134     162     159    -141     135     135
     162     159    -141     135     136     162     159    -141     135     137
     162     159     141     144     117     162     159     141     147     138
     162     159    -141     147     139     162     159    -141     147     136
     162     159    -141     147     140     165     135     129     132       1
     165     135     141     144      10     165     171     177     180       1
     168     165     135     138      21     168     165    -135     138       1
     168     165    -135     138      22     168     165     171     174      23
     168     165    -171     174       6      75     123     129     132       6
      78      75      69      72       1      78      75     123     129       1
      81      75      69      72       1      84      81      75      69      10
      84      81      75      78      10      87      81      75      69      10
      87      81      75      78      10      90      81      75      78      10
      93      90      81      84       1      93      90      81      87       1
      96      93      90      81      53     102      99      93      90      53
     102      99      93      96      53     105      99      93      96      53
     108     105      99      93      53     108     105      99     102      53
     111     105      99     102      53     114     111     105      99      53
     114     111     105     108      53     114     111     117      90      53
     117      90      81      84       1     117      90      81      87       1
     117      90      93      96      53     117     111     105     108      53
     120     117      90      81      53     120     117      90      93      53
     120     117     111     105      53     120     117     111     114      53
     123      75      69      72       1     123      75      81      84      10
     123      75      81      87      10     123     129     135     138       1
     126     123      75      78      21     126     123     -75      78       1
     126     123     -75      78      22     126     123     129     132      23
     126     123    -129     132       6      33      63      69      72       6
      36      33      27      30       1      36      33      63      69       1
      39      33      27      30       1      42      39      33      27      10
      42      39      33      36      10      45      39      33      36      10
      48      45      39      33      11      48      45      39      42      10
      51      45      39      33      11      51      45      39      42      10
      54      45      39      33      11      54      45      39      42      10
      57      39      33      36     112      57      39     -33      36      16
      57      39      45      48     112      57      39     -45      48      16
      57      39      45      51     112      57      39     -45      51      16
      57      39      45      54     112      57      39     -45      54      16
      60      57      39      33     134      60      57     -39      33     135
      60      57     -39      33     136      60      57     -39      33     137
      60      57      39      42     117      60      57      39      45     138
      60      57     -39      45     139      60      57     -39      45     136
      60      57     -39      45     140      63      33      27      30       1
      63      33      39      42      10      63      69      75      78       1
      66      63      33      36      21      66      63     -33      36       1
      66      63     -33      36      22      66      63      69      72      23
      66      63     -69      72       6      12      21      27      30       6
       3       0      12      15      10       6       0      12      15      10
       9       0      12      15      10      15      12      21      27       1
       3       0      12      18      10       6       0      12      18      10
       9       0      12      18      10      18      12      21      27       1
       3       0      12      21      10       6       0      12      21      10
       9       0      12      21      10      21      27      33      36       1
      24      21      12      15       1      24      21      12      18       1
      24      21      27      30      23      24      21     -27      30       6
    1551    1329    1332    1554     144    1551    1329    1332    1557     144
    1548    1329    1332    1554     144    1548    1329    1332    1557     144
    1545    1326    1329    1548     144    1545    1326    1329    1551     144
    1542    1326    1329    1548     144    1542    1326    1329    1551     144
    1539    1323    1326    1542     144    1539    1323    1326    1545     144
    1536    1323    1326    1542     144    1536    1323    1326    1545     144
    1533    1320    1323    1536     144    1533    1320    1323    1539     144
    1530    1320    1323    1536     144    1530    1320    1323    1539     144
    1527    1317    1320    1530     144    1527    1317    1320    1533     144
    1524    1317    1320    1530     144    1524    1317    1320    1533     144
    1521    1314    1317    1524     144    1521    1314    1317    1527     144
    1518    1314    1317    1524     144    1518    1314    1317    1527     144
    1515    1311    1314    1518     144    1515    1311    1314    1521     144
    1512    1311    1314    1518     144    1512    1311    1314    1521     144
    1509    1308    1311    1512     144    1509    1308    1311    1515     144
    1506    1308    1311    1512     144    1506    1308    1311    1515     144
    1503    1305    1308    1506     144    1503    1305    1308    1509     144
    1500    1305    1308    1506     144    1500    1305    1308    1509     144
    1497    1302    1305    1500     144    1497    1302    1305    1503     144
    1494    1302    1305    1500     144    1494    1302    1305    1503     144
    1491    1299    1302    1494     144    1491    1299    1302    1497     144
    1488    1299    1302    1494     144    1488    1299    1302    1497     144
    1485    1296    1299    1488     144    1485    1296    1299    1491     144
    1482    1296    1299    1488     144    1482    1296    1299    1491     144
    1479    1293    1296    1482     144    1479    1293    1296    1485     144
    1476    1293    1296    1482     144    1476    1293    1296    1485     144
    1473    1290    1293    1476     144    1473    1290    1293    1479     144
    1470    1290    1293    1476     144    1470    1290    1293    1479     144
    1467    1287    1290    1470     144    1467    1287    1290    1473     144
    1464    1287    1290    1470     144    1464    1287    1290    1473     144
    1449    1269    1272    1452     144    1449    1269    1272    1455     144
    1446    1269    1272    1452     144    1446    1269    1272    1455     144
    1437    1260    1263    1440     144    1437    1260    1263    1443     144
    1434    1260    1263    1440     144    1434    1260    1263    1443     144
    1431    1257    1260    1434       1    1431    1257    1260    1437       1
    1416    1239    1242    1419     144    1416    1239    1242    1422     144
    1413    1239    1242    1419     144    1413    1239    1242    1422     144
    1404    1230    1233    1407     144    1404    1230    1233    1410     144
    1401    1230    1233    1407     144    1401    1230    1233    1410     144
    1398    1227    1230    1401       1    1398    1227    1230    1404       1
    1383    1209    1212    1386     144    1383    1209    1212    1389     144
    1380    1209    1212    1386     144    1380    1209    1212    1389     144
    1371    1200    1203    1374     144    1371    1200    1203    1377     144
    1368    1200    1203    1374     144    1368    1200    1203    1377     144
    1365    1197    1200    1368       1    1365    1197    1200    1371       1
    1356    1185    1188    1359     145    1356    1185    1188    1362     145
    1353    1182    1185    1356     144    1350    1182    1185    1356     144
    1347    1179    1182    1350     144    1347    1179    1182    1353     144
    1344    1179    1182    1350     144    1344    1179    1182    1353     144
    1341    1335    1332    1554     146    1341    1335   -1332    1554     147
    1341    1335    1332    1557     146    1341    1335   -1332    1557     147
    1338    1335    1332    1554     146    1338    1335   -1332    1554     147
    1338    1335    1332    1557     146    1338    1335   -1332    1557     147
    1335    1332    1329    1548      10    1335    1332    1329    1551      10
    1332    1329    1326    1542     148    1332    1329    1326    1545     148
    1329    1326    1323    1536     148    1329    1326    1323    1539     148
    1326    1323    1320    1530     148    1326    1323    1320    1533     148
    1326    1329    1332    1554     148    1326    1329    1332    1557     148
    1323    1320    1317    1524     148    1323    1320    1317    1527     148
    1323    1326    1329    1548     148    1323    1326    1329    1551     148
    1320    1317    1314    1518     148    1320    1317    1314    1521     148
    1320    1323    1326    1542     148    1320    1323    1326    1545     148
    1317    1314    1311    1512     148    1317    1314    1311    1515     148
    1317    1320    1323    1536     148    1317    1320    1323    1539     148
    1314    1311    1308    1506     148    1314    1311    1308    1509     148
    1314    1317    1320    1530     148    1314    1317    1320    1533     148
    1311    1308    1305    1500     148    1311    1308    1305    1503     148
    1311    1314    1317    1524     148    1311    1314    1317    1527     148
    1308    1305    1302    1494     148    1308    1305    1302    1497     148
    1308    1311    1314    1518     148    1308    1311    1314    1521     148
    1305    1302    1299    1488     148    1305    1302    1299    1491     148
    1305    1308    1311    1512     148    1305    1308    1311    1515     148
    1302    1299    1296    1482     148    1302    1299    1296    1485     148
    1302    1305    1308    1506     148    1302    1305    1308    1509     148
    1299    1296    1293    1476     148    1299    1296    1293    1479     148
    1299    1302    1305    1500     148    1299    1302    1305    1503     148
    1296    1293    1290    1470     148    1296    1293    1290    1473     148
    1296    1299    1302    1494     148    1296    1299    1302    1497     148
    1293    1290    1287    1464     148    1293    1290    1287    1467     148
    1293    1296    1299    1488     148    1293    1296    1299    1491     148
    1290    1293    1296    1482     148    1290    1293    1296    1485     148
    1287    1281    1278    1458     155    1287    1281    1278    1461     155
    1287    1290    1293    1476     148    1287    1290    1293    1479     148
    1284    1281    1278    1458     146    1284    1281   -1278    1458     147
    1284    1281    1278    1461     146    1284    1281   -1278    1461     147
    1284    1281    1287    1464     146    1284    1281   -1287    1464     147
    1284    1281    1287    1467     146    1284    1281   -1287    1467     147
    1281    1287    1290    1470      10    1281    1287    1290    1473      10
    1278    1275    1272    1452     156    1278    1275    1272    1455     156
    1278    1281    1287    1464     155    1278    1281    1287    1467     155
    1275    1272    1269    1446     112    1275    1272   -1269    1446      16
    1275    1272    1269    1449     112    1275    1272   -1269    1449      16
    1272    1275    1278    1458     156    1272    1275    1278    1461     156
    1269    1266    1263    1440     156    1269    1266    1263    1443     156
    1266    1263    1260    1434     112    1266    1263   -1260    1434      16
    1266    1263    1260    1437     112    1266    1263   -1260    1437      16
    1266    1269    1272    1452     112    1266    1269   -1272    1452      16
    1266    1269    1272    1455     112    1266    1269   -1272    1455      16
    1263    1260    1257    1431       1    1263    1266    1269    1446     156
    1263    1266    1269    1449     156    1257    1251    1248    1425      97
    1257    1251    1248    1428      97    1257    1260    1263    1440      10
    1257    1260    1263    1443      10    1254    1251    1248    1425     146
    1254    1251   -1248    1425     147    1254    1251    1248    1428     146
    1254    1251   -1248    1428     147    1254    1251    1257    1431      23
    1254    1251   -1257    1431       6    1251    1257    1260    1434       1
    1251    1257    1260    1437       1    1248    1245    1242    1419     156
    1248    1245    1242    1422     156    1248    1251    1257    1431       6
    1245    1242    1239    1413     112    1245    1242   -1239    1413      16
    1245    1242    1239    1416     112    1245    1242   -1239    1416      16
    1242    1245    1248    1425     156    1242    1245    1248    1428     156
    1239    1236    1233    1407     156    1239    1236    1233    1410     156
    1236    1233    1230    1401     112    1236    1233   -1230    1401      16
    1236    1233    1230    1404     112    1236    1233   -1230    1404      16
    1236    1239    1242    1419     112    1236    1239   -1242    1419      16
    1236    1239    1242    1422     112    1236    1239   -1242    1422      16
    1233    1230    1227    1398       1    1233    1236    1239    1413     156
    1233    1236    1239    1416     156    1227    1221    1218    1392      97
    1227    1221    1218    1395      97    1227    1230    1233    1407      10
    1227    1230    1233    1410      10    1224    1221    1218    1392     146
    1224    1221   -1218    1392     147    1224    1221    1218    1395     146
    1224    1221   -1218    1395     147    1224    1221    1227    1398      23
    1224    1221   -1227    1398       6    1221    1227    1230    1401       1
    1221    1227    1230    1404       1    1218    1215    1212    1386     156
    1218    1215    1212    1389     156    1218    1221    1227    1398       6
    1215    1212    1209    1380     112    1215    1212   -1209    1380      16
    1215    1212    1209    1383     112    1215    1212   -1209    1383      16
    1212    1215    1218    1392     156    1212    1215    1218    1395     156
    1209    1206    1203    1374     156    1209    1206    1203    1377     156
    1206    1203    1200    1368     112    1206    1203   -1200    1368      16
    1206    1203    1200    1371     112    1206    1203   -1200    1371      16
    1206    1209    1212    1386     112    1206    1209   -1212    1386      16
    1206    1209    1212    1389     112    1206    1209   -1212    1389      16
    1203    1200    1197    1365       1    1203    1206    1209    1380     156
    1203    1206    1209    1383     156    1197    1191    1185    1356      97
    1197    1200    1203    1374      10    1197    1200    1203    1377      10
    1194    1191    1185    1356     146    1194    1191   -1185    1356     147
    1194    1191    1197    1365      23    1194    1191   -1197    1365       6
    1191    1185    1182    1350      10    1191    1185    1182    1353      10
    1191    1185    1188    1359     145    1191    1185    1188    1362     145
    1191    1197    1200    1368       1    1191    1197    1200    1371       1
    1188    1185    1182    1350     172    1188    1185    1182    1353     172
    1185    1182    1179    1344     148    1185    1182    1179    1347     148
    1185    1191    1197    1365       6    1182    1185    1188    1359     173
    1182    1185    1188    1362     173    1179    1182    1185    1356     148
    1176    1173    1179    1344     146    1176    1173   -1179    1344     147
    1176    1173    1179    1347     146    1176    1173   -1179    1347     147
    1173    1179    1182    1350      10    1173    1179    1182    1353      10
    1143    1155   -1149   -1152     177    1071    1083   -1077   -1080     177
    1107    1122   -1116   -1119     179    1122    1128   -1125   -1131     179
    1122    1137   -1134   -1140     179    1023    1035   -1029   -1032     177
     966     978    -972    -975     177     894     906    -900    -903     177
     921     930    -924    -927     177     924     936    -930    -933     179
     936     945    -939    -942     177     939     951    -945    -948     177
     945     957    -951    -954     177     951     963    -957    -960     177
     864     876    -870    -873     177     807     819    -813    -816     177
     747     759    -753    -756     177     774     783    -777    -780     177
     777     789    -783    -786     177     783     795    -789    -792     177
     789     801    -795    -798     177     774     795    -801    -804     177
     702     714    -708    -711     177     645     657    -651    -654     177
     615     627    -621    -624     177     585     597    -591    -594     177
     534     546    -540    -543     177     570     579    -576    -582     179
     513     525    -519    -522     177     468     480    -474    -477     177
     411     423    -417    -420     177     348     360    -354    -357     177
     375     384    -378    -381     177     378     390    -384    -387     177
     390     405    -399    -402     177     375     399    -405    -408     177
     315     327    -321    -324     177     282     294    -288    -291     177
     234     246    -240    -243     177     198     210    -204    -207     177
     165     177    -171    -174     177     123     135    -129    -132     177
      63      75     -69     -72     177      90      99     -93     -96     177
      93     105     -99    -102     177      99     111    -105    -108     177
     105     117    -111    -114     177      90     111    -117    -120     177
      21      33     -27     -30     177    1251    1260   -1257   -1431     177
    1221    1230   -1227   -1398     177    1191    1200   -1197   -1365     177
%FLAG DIHEDRALS_WITHOUT_HYDROGEN
%FORMAT(10I8)
    1167    1164    1155    1149       1    1170    1164    1155    1149       1
    1077    1083    1143    1149       2    1077    1083   -1143    1149       3
    1077    1083   -1143    1149       4    1077    1083   -1143    1149       5
    1083    1143    1149    1155       6    1089    1083    1143    1149       7
    1089    1083   -1143    1149       8    1089    1083   -1143    1149       9
    1089    1083   -1143    1149       5    1098    1089    1083    1077      10
    1107    1098    1089    1083      13    1107    1098   -1089    1083      14
    1107    1098   -1089    1083      15    1116    1107    1098    1089      10
    1122    1116    1107    1098      17    1122    1116   -1107    1098      16
    1125    1122    1116    1107      18    1125    1122   -1116    1107       5
    1134    1122    1116    1107      18    1134    1122   -1116    1107       5
    1143    1083    1089    1098      10    1143    1149    1155    1164      17
    1143    1149   -1155    1164      19    1143    1149   -1155    1164      20
    1143    1149   -1155    1164       5    1146    1143    1083    1077       1
    1146    1143    1083    1089       1    1146    1143    1149    1155       6
    1029    1035    1071    1077       2    1029    1035   -1071    1077       3
    1029    1035   -1071    1077       4    1029    1035   -1071    1077       5
    1035    1071    1077    1083       6    1041    1035    1071    1077       7
    1041    1035   -1071    1077       8    1041    1035   -1071    1077       9
    1041    1035   -1071    1077       5    1047    1041    1035    1029      24
    1047    1041   -1035    1029      25    1047    1041   -1035    1029      26
    1047    1041   -1035    1029      27    1059    1041    1035    1029      24
    1059    1041   -1035    1029      25    1059    1041   -1035    1029      26
    1059    1041   -1035    1029      27    1071    1035    1041    1047      28
    1071    1035   -1041    1047      29    1071    1035   -1041    1047      26
    1071    1035   -1041    1047      30    1071    1035    1041    1059      28
    1071    1035   -1041    1059      29    1071    1035   -1041    1059      26
    1071    1035   -1041    1059      30    1071    1077    1083    1089      23
    1071    1077   -1083    1089      31    1071    1077   -1083    1089      32
    1071    1077   -1083    1089       5    1071    1077    1083    1143      17
    1071    1077   -1083    1143      19    1071    1077   -1083    1143      20
    1071    1077   -1083    1143       5    1074    1071    1035    1029       1
    1074    1071    1035    1041       1    1074    1071    1077    1083       6
     972     978    1023    1029       2     972     978   -1023    1029       3
     972     978   -1023    1029       4     972     978   -1023    1029       5
     978    1023    1029    1035       6     984     978    1023    1029       7
     984     978   -1023    1029       8     984     978   -1023    1029       9
     984     978   -1023    1029       5     993     984     978     972      33
     993     984    -978     972      34     993     984    -978     972      35
     993     984    -978     972      36     999     993     984     978      37
     999     993    -984     978      38     999     993    -984     978      39
     999     993    -984     978      40    1011     993     984     978      37
    1011     993    -984     978      38    1011     993    -984     978      39
    1011     993    -984     978      40    1023     978     984     993      41
    1023     978    -984     993      42    1023     978    -984     993      35
    1023     978    -984     993      43    1023    1029    1035    1041      23
    1023    1029   -1035    1041      31    1023    1029   -1035    1041      32
    1023    1029   -1035    1041       5    1023    1029    1035    1071      17
    1023    1029   -1035    1071      19    1023    1029   -1035    1071      20
    1023    1029   -1035    1071       5    1026    1023     978     972       1
    1026    1023     978     984       1    1026    1023    1029    1035       6
     900     906     966     972       2     900     906    -966     972       3
     900     906    -966     972       4     900     906    -966     972       5
     906     966     972     978       6     912     906     966     972       7
     912     906    -966     972       8     912     906    -966     972       9
     912     906    -966     972       5     921     912     906     900      44
     921     912    -906     900      45     921     912    -906     900      46
     921     912    -906     900      47     924     921     912     906      17
     924     921    -912     906       1     924     921    -912     906      16
     924     921    -912     906       5     930     924     921     912      48
     930     936    -963     921      49     936     930    -924     921      50
     936     963     921     912      51     936     963    -921     924      51
     939     936     930     924      52     939     936     963     921      49
     945     939     936     930      53     951     945     939     936      53
     951     957     963     921      54     951     957    -963     936      54
     957     951     945     939      53     957     963     921     912      51
     957     963     921     924      51     957     963     936     930      49
     957     963    -936     939      49     963     921     912     906      55
     963     921    -912     906      56     963     921    -912     906      57
     963     921    -912     906      58     963     921    -924     930      48
     963     936    -930     924      52     963     936     939     945      53
     963     957    -951     945      53     966     906     912     921      59
     966     906    -912     921      60     966     906    -912     921      46
     966     906    -912     921      61     966     972     978     984      23
     966     972    -978     984      31     966     972    -978     984      32
     966     972    -978     984       5     966     972     978    1023      17
     966     972    -978    1023      19     966     972    -978    1023      20
     966     972    -978    1023       5     969     966     906     900       1
     969     966     906     912       1     969     966     972     978       6
     870     876     894     900       2     870     876    -894     900       3
     870     876    -894     900       4     870     876    -894     900       5
     876     894     900     906       6     882     876     894     900       7
     882     876    -894     900       8     882     876    -894     900       9
     882     876    -894     900       5     894     900     906     912      23
     894     900    -906     912      31     894     900    -906     912      32
     894     900    -906     912       5     894     900     906     966      17
     894     900    -906     966      19     894     900    -906     966      20
     894     900    -906     966       5     897     894     876     870       1
     897     894     876     882       1     897     894     900     906       6
     813     819     864     870       2     813     819    -864     870       3
     813     819    -864     870       4     813     819    -864     870       5
     819     864     870     876       6     825     819     864     870       7
     825     819    -864     870       8     825     819    -864     870       9
     825     819    -864     870       5     831     825     819     813      24
     831     825    -819     813      25     831     825    -819     813      26
     831     825    -819     813      27     843     825     819     813      62
     843     825    -819     813      63     843     825    -819     813      64
     843     825    -819     813      65     852     843     825     819      66
     852     843    -825     819      67     852     843    -825     819      68
     852     843    -825     819      69     852     843     825     831      70
     852     843    -825     831      71     852     843    -825     831      68
     852     843    -825     831      72     864     819     825     831      28
     864     819    -825     831      29     864     819    -825     831      26
     864     819    -825     831      30     864     819     825     843      73
     864     819    -825     843      74     864     819    -825     843      64
     864     819    -825     843      75     864     870     876     882      23
     864     870    -876     882      31     864     870    -876     882      32
     864     870    -876     882       5     864     870     876     894      17
     864     870    -876     894      19     864     870    -876     894      20
     864     870    -876     894       5     867     864     819     813       1
     867     864     819     825       1     867     864     870     876       6
     753     759     807     813       2     753     759    -807     813       3
     753     759    -807     813       4     753     759    -807     813       5
     759     807     813     819       6     765     759     807     813       7
     765     759    -807     813       8     765     759    -807     813       9
     765     759    -807     813       5     774     765     759     753      76
     774     765    -759     753      77     774     765    -759     753      78
     774     765    -759     753      79     777     774     765     759      17
     777     774    -765     759      80     777     774    -765     759      16
     777     774    -765     759      81     783     777     774     765      53
     789     783     777     774      53     789     795    -801     774      53
     795     789     783     777      53     795     801     774     765      53
     795     801    -774     777      53     801     774     765     759      17
     801     774    -765     759      80     801     774    -765     759      16
     801     774    -765     759      81     801     774     777     783      53
     801     795    -789     783      53     807     759     765     774      82
     807     759    -765     774      83     807     759    -765     774      78
     807     759    -765     774      84     807     813     819     825      23
     807     813    -819     825      31     807     813    -819     825      32
     807     813    -819     825       5     807     813     819     864      17
     807     813    -819     864      19     807     813    -819     864      20
     807     813    -819     864       5     810     807     759     753       1
     810     807     759     765       1     810     807     813     819       6
     708     714     747     753       2     708     714    -747     753       3
     708     714    -747     753       4     708     714    -747     753       5
     714     747     753     759       6     720     714     747     753       7
     720     714    -747     753       8     720     714    -747     753       9
     720     714    -747     753       5     729     720     714     708      85
     729     720    -714     708      86     729     720    -714     708      35
     729     720    -714     708      87     738     729     720     714      88
     738     729    -720     714      89     738     729    -720     714      90
     738     729    -720     714      91     741     738     729     720      92
     741     738    -729     720      93     744     738     729     720      92
     744     738    -729     720      93     747     714     720     729      94
     747     714    -720     729      95     747     714    -720     729      35
     747     714    -720     729      96     747     753     759     765      23
     747     753    -759     765      31     747     753    -759     765      32
     747     753    -759     765       5     747     753     759     807      17
     747     753    -759     807      19     747     753    -759     807      20
     747     753    -759     807       5     750     747     714     708       1
     750     747     714     720       1     750     747     753     759       6
     651     657     702     708       2     651     657    -702     708       3
     651     657    -702     708       4     651     657    -702     708       5
     657     702     708     714       6     663     657     702     708       7
     663     657    -702     708       8     663     657    -702     708       9
     663     657    -702     708       5     672     663     657     651      10
     681     672     663     657      13     681     672    -663     657      14
     681     672    -663     657      15     681     690     699    1173      10
     690     681     672     663      13     690     681    -672     663      14
     690     681    -672     663      15     690     699    1173    1176       6
     690     699    1173    1179       6     699     690     681     672      10
     699    1173    1179    1182      97     702     657     663     672      10
     702     708     714     720      23     702     708    -714     720      31
     702     708    -714     720      32     702     708    -714     720       5
     702     708     714     747      17     702     708    -714     747      19
     702     708    -714     747      20     702     708    -714     747       5
     705     702     657     651       1     705     702     657     663       1
     705     702     708     714       6     621     627     645     651       2
     621     627    -645     651       3     621     627    -645     651       4
     621     627    -645     651       5     627     645     651     657       6
     633     627     645     651       7     633     627    -645     651       8
     633     627    -645     651       9     633     627    -645     651       5
     645     651     657     663      23     645     651    -657     663      31
     645     651    -657     663      32     645     651    -657     663       5
     645     651     657     702      17     645     651    -657     702      19
     645     651    -657     702      20     645     651    -657     702       5
     648     645     627     621       1     648     645     627     633       1
     648     645     651     657       6     591     597     615     621       2
     591     597    -615     621       3     591     597    -615     621       4
     591     597    -615     621       5     597     615     621     627       6
     603     597     615     621       7     603     597    -615     621       8
     603     597    -615     621       9     603     597    -615     621       5
     615     621     627     633      23     615     621    -627     633      31
     615     621    -627     633      32     615     621    -627     633       5
     615     621     627     645      17     615     621    -627     645      19
     615     621    -627     645      20     615     621    -627     645       5
     618     615     597     591       1     618     615     597     603       1
     618     615     621     627       6     540     546     585     591       2
     540     546    -585     591       3     540     546    -585     591       4
     540     546    -585     591       5     546     585     591     597       6
     552     546     585     591       7     552     546    -585     591       8
     552     546    -585     591       9     552     546    -585     591       5
     561     552     546     540      85     561     552    -546     540      86
     561     552    -546     540      35     561     552    -546     540      87
     570     561     552     546      98     570     561    -552     546      99
     570     561    -552     546     100     570     561    -552     546     101
     573     570     561     552      17     576     570     561     552     102
     576     570    -561     552     103     576     570    -561     552     104
     576     570    -561     552     105     585     546     552     561      94
     585     546    -552     561      95     585     546    -552     561      35
     585     546    -552     561      96     585     591     597     603      23
     585     591    -597     603      31     585     591    -597     603      32
     585     591    -597     603       5     585     591     597     615      17
     585     591    -597     615      19     585     591    -597     615      20
     585     591    -597     615       5     588     585     546     540       1
     588     585     546     552       1     588     585     591     597       6
     519     525     534     540       2     519     525    -534     540       3
     519     525    -534     540       4     519     525    -534     540       5
     525     534     540     546       6     534     540     546     552      23
     534     540    -546     552      31     534     540    -546     552      32
     534     540    -546     552       5     534     540     546     585      17
     534     540    -546     585      19     534     540    -546     585      20
     534     540    -546     585       5     537     534     525     519       1
     537     534     540     546       6     474     480     513     519       2
     474     480    -513     519       3     474     480    -513     519       4
     474     480    -513     519       5     480     513     519     525       6
     486     480     513     519       7     486     480    -513     519       8
     486     480    -513     519       9     486     480    -513     519       5
     495     486     480     474      85     495     486    -480     474      86
     495     486    -480     474      35     495     486    -480     474      87
     504     495     486     480      88     504     495    -486     480      89
     504     495    -486     480      90     504     495    -486     480      91
     507     504     495     486      92     507     504    -495     486      93
     510     504     495     486      92     510     504    -495     486      93
     513     480     486     495      94     513     480    -486     495      95
     513     480    -486     495      35     513     480    -486     495      96
     513     519     525     534      17     513     519    -525     534      19
     513     519    -525     534      20     513     519    -525     534       5
     516     513     480     474       1     516     513     480     486       1
     516     513     519     525       6     417     423     468     474       2
     417     423    -468     474       3     417     423    -468     474       4
     417     423    -468     474       5     423     468     474     480       6
     429     423     468     474       7     429     423    -468     474       8
     429     423    -468     474       9     429     423    -468     474       5
     438     429     423     417      33     438     429    -423     417      34
     438     429    -423     417      35     438     429    -423     417      36
     444     438     429     423      37     444     438    -429     423      38
     444     438    -429     423      39     444     438    -429     423      40
     456     438     429     423      37     456     438    -429     423      38
     456     438    -429     423      39     456     438    -429     423      40
     468     423     429     438      41     468     423    -429     438      42
     468     423    -429     438      35     468     423    -429     438      43
     468     474     480     486      23     468     474    -480     486      31
     468     474    -480     486      32     468     474    -480     486       5
     468     474     480     513      17     468     474    -480     513      19
     468     474    -480     513      20     468     474    -480     513       5
     471     468     423     417       1     471     468     423     429       1
     471     468     474     480       6     354     360     411     417       2
     354     360    -411     417       3     354     360    -411     417       4
     354     360    -411     417       5     360     411     417     423       6
     366     360     411     417       7     366     360    -411     417       8
     366     360    -411     417       9     366     360    -411     417       5
     375     366     360     354      76     375     366    -360     354      77
     375     366    -360     354      78     375     366    -360     354      79
     378     375     366     360      17     378     375    -366     360      80
     378     375    -366     360      16     378     375    -366     360      81
     384     378     375     366      53     390     384     378     375      53
     390     399    -405     375      53     393     390     384     378      53
     399     390     384     378      53     399     405     375     366      53
     399     405    -375     378      53     405     375     366     360      17
     405     375    -366     360      80     405     375    -366     360      16
     405     375    -366     360      81     405     375     378     384      53
     405     399    -390     384      53     405     399     390     393      53
     411     360     366     375      82     411     360    -366     375      83
     411     360    -366     375      78     411     360    -366     375      84
     411     417     423     429      23     411     417    -423     429      31
     411     417    -423     429      32     411     417    -423     429       5
     411     417     423     468      17     411     417    -423     468      19
     411     417    -423     468      20     411     417    -423     468       5
     414     411     360     354       1     414     411     360     366       1
     414     411     417     423       6     321     327     348     354       2
     321     327    -348     354       3     321     327    -348     354       4
     321     327    -348     354       5     327     348     354     360       6
     333     327     348     354       7     333     327    -348     354       8
     333     327    -348     354       9     333     327    -348     354       5
     342     333     327     321     108     342     333    -327     321     109
     342     333    -327     321     110     342     333    -327     321     111
     348     327     333     342     118     348     327    -333     342     119
     348     327    -333     342     110     348     327    -333     342     120
     348     354     360     366      23     348     354    -360     366      31
     348     354    -360     366      32     348     354    -360     366       5
     348     354     360     411      17     348     354    -360     411      19
     348     354    -360     411      20     348     354    -360     411       5
     351     348     327     321       1     351     348     327     333       1
     351     348     354     360       6     288     294     315     321       2
     288     294    -315     321       3     288     294    -315     321       4
     288     294    -315     321       5     294     315     321     327       6
     300     294     315     321       7     300     294    -315     321       8
     300     294    -315     321       9     300     294    -315     321       5
     309     300     294     288     108     309     300    -294     288     109
     309     300    -294     288     110     309     300    -294     288     111
     315     294     300     309     118     315     294    -300     309     119
     315     294    -300     309     110     315     294    -300     309     120
     315     321     327     333      23     315     321    -327     333      31
     315     321    -327     333      32     315     321    -327     333       5
     315     321     327     348      17     315     321    -327     348      19
     315     321    -327     348      20     315     321    -327     348       5
     318     315     294     288       1     318     315     294     300       1
     318     315     321     327       6     240     246     282     288       2
     240     246    -282     288       3     240     246    -282     288       4
     240     246    -282     288       5     246     282     288     294       6
     252     246     282     288       7     252     246    -282     288       8
     252     246    -282     288       9     252     246    -282     288       5
     258     252     246     240      24     258     252    -246     240      25
     258     252    -246     240      26     258     252    -246     240      27
     270     252     246     240      24     270     252    -246     240      25
     270     252    -246     240      26     270     252    -246     240      27
     282     246     252     258      28     282     246    -252     258      29
     282     246    -252     258      26     282     246    -252     258      30
     282     246     252     270      28     282     246    -252     270      29
     282     246    -252     270      26     282     246    -252     270      30
     282     288     294     300      23     282     288    -294     300      31
     282     288    -294     300      32     282     288    -294     300       5
     282     288     294     315      17     282     288    -294     315      19
     282     288    -294     315      20     282     288    -294     315       5
     285     282     246     240       1     285     282     246     252       1
     285     282     288     294       6     204     210     234     240       2
     204     210    -234     240       3     204     210    -234     240       4
     204     210    -234     240       5     210     234     240     246       6
     216     210     234     240       7     216     210    -234     240       8
     216     210    -234     240       9     216     210    -234     240       5
     225     216     210     204     121     225     216    -210     204     122
     225     216    -210     204     123     225     216    -210     204     124
     228     225     216     210      17     228     225    -216     210     125
     228     225    -216     210      16     228     225    -216     210     126
     231     225     216     210      17     231     225    -216     210     125
     231     225    -216     210      16     231     225    -216     210     126
     234     210     216     225     127     234     210    -216     225     128
     234     210    -216     225     123     234     210    -216     225     129
     234     240     246     252      23     234     240    -246     252      31
     234     240    -246     252      32     234     240    -246     252       5
     234     240     246     282      17     234     240    -246     282      19
     234     240    -246     282      20     234     240    -246     282       5
     237     234     210     204       1     237     234     210     216       1
     237     234     240     246       6     171     177     198     204       2
     171     177    -198     204       3     171     177    -198     204       4
     171     177    -198     204       5     177     198     204     210       6
     183     177     198     204       7     183     177    -198     204       8
     183     177    -198     204       9     183     177    -198     204       5
     192     183     177     171     108     192     183    -177     171     109
     192     183    -177     171     110     192     183    -177     171     111
     198     177     183     192     118     198     177    -183     192     119
     198     177    -183     192     110     198     177    -183     192     120
     198     204     210     216      23     198     204    -210     216      31
     198     204    -210     216      32     198     204    -210     216       5
     198     204     210     234      17     198     204    -210     234      19
     198     204    -210     234      20     198     204    -210     234       5
     201     198     177     171       1     201     198     177     183       1
     201     198     204     210       6     129     135     165     171       2
     129     135    -165     171       3     129     135    -165     171       4
     129     135    -165     171       5     135     165     171     177       6
     141     135     165     171       7     141     135    -165     171       8
     141     135    -165     171       9     141     135    -165     171       5
     147     141     135     129      24     147     141    -135     129      25
     147     141    -135     129      26     147     141    -135     129      27
     159     141     135     129     130     159     141    -135     129     131
     159     141    -135     129     132     159     141    -135     129     133
     165     135     141     147      28     165     135    -141     147      29
     165     135    -141     147      26     165     135    -141     147      30
     165     135     141     159     141     165     135    -141     159     142
     165     135    -141     159     132     165     135    -141     159     143
     165     171     177     183      23     165     171    -177     183      31
     165     171    -177     183      32     165     171    -177     183       5
     165     171     177     198      17     165     171    -177     198      19
     165     171    -177     198      20     165     171    -177     198       5
     168     165     135     129       1     168     165     135     141       1
     168     165     171     177       6      69      75     123     129       2
      69      75    -123     129       3      69      75    -123     129       4
      69      75    -123     129       5      75     123     129     135       6
      81      75     123     129       7      81      75    -123     129       8
      81      75    -123     129       9      81      75    -123     129       5
      90      81      75      69      76      90      81     -75      69      77
      90      81     -75      69      78      90      81     -75      69      79
      93      90      81      75      17      93      90     -81      75      80
      93      90     -81      75      16      93      90     -81      75      81
      99      93      90      81      53     105      99      93      90      53
     105     111    -117      90      53     111     105      99      93      53
     111     117      90      81      53     111     117     -90      93      53
     117      90      81      75      17     117      90     -81      75      80
     117      90     -81      75      16     117      90     -81      75      81
     117      90      93      99      53     117     111    -105      99      53
     123      75      81      90      82     123      75     -81      90      83
     123      75     -81      90      78     123      75     -81      90      84
     123     129     135     141      23     123     129    -135     141      31
     123     129    -135     141      32     123     129    -135     141       5
     123     129     135     165      17     123     129    -135     165      19
     123     129    -135     165      20     123     129    -135     165       5
     126     123      75      69       1     126     123      75      81       1
     126     123     129     135       6      27      33      63      69       2
      27      33     -63      69       3      27      33     -63      69       4
      27      33     -63      69       5      33      63      69      75       6
      39      33      63      69       7      39      33     -63      69       8
      39      33     -63      69       9      39      33     -63      69       5
      45      39      33      27      24      45      39     -33      27      25
      45      39     -33      27      26      45      39     -33      27      27
      57      39      33      27     130      57      39     -33      27     131
      57      39     -33      27     132      57      39     -33      27     133
      63      33      39      45      28      63      33     -39      45      29
      63      33     -39      45      26      63      33     -39      45      30
      63      33      39      57     141      63      33     -39      57     142
      63      33     -39      57     132      63      33     -39      57     143
      63      69      75      81      23      63      69     -75      81      31
      63      69     -75      81      32      63      69     -75      81       5
      63      69      75     123      17      63      69     -75     123      19
      63      69     -75     123      20      63      69     -75     123       5
      66      63      33      27       1      66      63      33      39       1
      66      63      69      75       6       0      12      21      27       1
      12      21      27      33       6      21      27      33      39      23
      21      27     -33      39      31      21      27     -33      39      32
      21      27     -33      39       5      21      27      33      63      17
      21      27     -33      63      19      21      27     -33      63      20
      21      27     -33      63       5       0      12      21      24       1
      24      21      27      33       6    1329    1332    1335    1338     149
    1329    1332   -1335    1338     150    1329    1332   -1335    1338     151
    1329    1332    1335    1341     149    1329    1332   -1335    1341     150
    1329    1332   -1335    1341     151    1326    1329    1332    1335     152
    1326    1329   -1332    1335     153    1326    1329   -1332    1335      16
    1323    1326    1329    1332     154    1320    1323    1326    1329     154
    1317    1320    1323    1326     154    1314    1317    1320    1323     154
    1311    1314    1317    1320     154    1308    1311    1314    1317     154
    1305    1308    1311    1314     154    1302    1305    1308    1311     154
    1299    1302    1305    1308     154    1296    1299    1302    1305     154
    1293    1296    1299    1302     154    1290    1293    1296    1299     154
    1287    1290    1293    1296     154    1284    1281    1287    1290     149
    1284    1281   -1287    1290     150    1284    1281   -1287    1290     151
    1281    1287    1290    1293     152    1281    1287   -1290    1293     153
    1281    1287   -1290    1293      16    1278    1281    1287    1290     157
    1275    1278    1281    1284     158    1275    1278   -1281    1284     159
    1275    1278   -1281    1284     160    1275    1278    1281    1287      97
    1272    1275    1278    1281     156    1269    1272    1275    1278     161
    1269    1272   -1275    1278     162    1269    1272   -1275    1278     163
    1266    1269    1272    1275     164    1266    1269   -1272    1275     165
    1266    1269   -1272    1275     166    1263    1266    1269    1272     161
    1263    1266   -1269    1272     162    1263    1266   -1269    1272     163
    1260    1263    1266    1269     161    1260    1263   -1266    1269     162
    1260    1263   -1266    1269     163    1257    1260    1263    1266      10
    1254    1251    1257    1260       6    1251    1257    1260    1263     167
    1251    1257   -1260    1263     168    1251    1257   -1260    1263     169
    1248    1251    1257    1260     170    1248    1251   -1257    1260     171
    1248    1251   -1257    1260     166    1245    1248    1251    1254     158
    1245    1248   -1251    1254     159    1245    1248   -1251    1254     160
    1245    1248    1251    1257      97    1242    1245    1248    1251     156
    1239    1242    1245    1248     161    1239    1242   -1245    1248     162
    1239    1242   -1245    1248     163    1236    1239    1242    1245     164
    1236    1239   -1242    1245     165    1236    1239   -1242    1245     166
    1233    1236    1239    1242     161    1233    1236   -1239    1242     162
    1233    1236   -1239    1242     163    1230    1233    1236    1239     161
    1230    1233   -1236    1239     162    1230    1233   -1236    1239     163
    1227    1230    1233    1236      10    1224    1221    1227    1230       6
    1221    1227    1230    1233     167    1221    1227   -1230    1233     168
    1221    1227   -1230    1233     169    1218    1221    1227    1230     170
    1218    1221   -1227    1230     171    1218    1221   -1227    1230     166
    1215    1218    1221    1224     158    1215    1218   -1221    1224     159
    1215    1218   -1221    1224     160    1215    1218    1221    1227      97
    1212    1215    1218    1221     156    1209    1212    1215    1218     161
    1209    1212   -1215    1218     162    1209    1212   -1215    1218     163
    1206    1209    1212    1215     164    1206    1209   -1212    1215     165
    1206    1209   -1212    1215     166    1203    1206    1209    1212     161
    1203    1206   -1209    1212     162    1203    1206   -1209    1212     163
    1200    1203    1206    1209     161    1200    1203   -1206    1209     162
    1200    1203   -1206    1209     163    1197    1200    1203    1206      10
    1194    1191    1197    1200       6    1191    1197    1200    1203     167
    1191    1197   -1200    1203     168    1191    1197   -1200    1203     169
    1188    1185    1191    1194      97    1188    1185    1191    1197      97
    1185    1191    1197    1200     170    1185    1191   -1197    1200     171
    1185    1191   -1197    1200     166    1182    1185    1191    1194     149
    1182    1185   -1191    1194     150    1182    1185   -1191    1194     151
    1182    1185    1191    1197     174    1182    1185   -1191    1197     175
    1179    1182    1185    1188     176    1179    1182    1185    1191     152
    1179    1182   -1185    1191     153    1179    1182   -1185    1191      16
    1176    1173    1179    1182     149    1176    1173   -1179    1182     150
    1176    1173   -1179    1182     151    1173    1179    1182    1185     152
    1173    1179   -1182    1185     153    1173    1179   -1182    1185      16
    1155    1167   -1164   -1170     178    1116    1125   -1122   -1134     178
    1083    1149   -1143   -1146     178    1035    1077   -1071   -1074     178
     978    1029   -1023   -1026     178     963     912    -921    -924     177
     930     939    -936    -963     180     921     936    -963    -957     180
     906     972    -966    -969     178     876     900    -894    -897     178
     819     870    -864    -867     178     777     801    -774    -765     177
     759     813    -807    -810     178     729     741    -738    -744     178
     714     753    -747    -750     178     657     708    -702    -705     178
     627     651    -645    -648     178     597     621    -615    -618     178
     561     576    -570    -573     178     546     591    -585    -588     178
     525     540    -534    -537     178     495     507    -504    -510     178
     480     519    -513    -516     178     423     474    -468    -471     178
     378     405    -375    -366     177     384     399    -390    -393     177
     360     417    -411    -414     178     327     354    -348    -351     178
     294     321    -315    -318     178     246     288    -282    -285     178
     216     228    -225    -231     178     210     240    -234    -237     178
     177     204    -198    -201     178     135     171    -165    -168     178
      93     117     -90     -81     177      75     129    -123    -126     178
      33      69     -63     -66     178      12      27     -21     -24     178
    1332    1338   -1335   -1341     177    1278    1287   -1281   -1284     178
    1248    1257   -1251   -1254     178    1218    1227   -1221   -1224     178
    1185    1197   -1191   -1194     178     699    1179   -1173   -1176     178
%FLAG EXCLUDED_ATOMS_LIST
%FORMAT(10I8)
       2       3       4       5       6       7       8       9      10       3
       4       5       6       7       8       4       5       6       7       8
       5       6       7       8       6       7       8       9      10      11
      12       7       8       9      10       8       9      10       9      10
      11      12      13      14      22      10      11      12      11      12
      13      14      15      16      20      22      23      24      12      13
      14      22      13      14      15      16      17      18      19      20
      21      22      23      24      25      26      14      15      16      20
      22      23      24      15      16      17      18      19      20      21
      22      23      24      16      17      18      19      20      21      22
      17      18      19      20      21      22      18      19      20      19
      20      20      21      22       0      23      24      25      26      27
      28      42      24      25      26      25      26      27      28      29
      30      31      42      43      44      26      27      28      42      27
      28      29      30      31      32      40      42      43      44      45
      46      28      29      30      31      42      43      44      29      30
      31      32      33      34      38      40      41      42      43      44
      30      31      32      40      42      31      32      40      42      32
      33      34      35      36      38      39      40      41      42      33
      34      35      36      37      38      40      41      34      35      36
      40      35      36      37      38      39      40      36      37      38
      37      38      39      40      41      38      39      40      39      40
      41      40      41      41       0      43      44      45      46      47
      48      56      44      45      46      45      46      47      48      49
      50      54      56      57      58      46      47      48      56      47
      48      49      50      51      52      53      54      55      56      57
      58      59      60      48      49      50      54      56      57      58
      49      50      51      52      53      54      55      56      57      58
      50      51      52      53      54      55      56      51      52      53
      54      55      56      52      53      54      53      54      54      55
      56       0      57      58      59      60      61      62      67      58
      59      60      59      60      61      62      63      64      65      67
      68      69      60      61      62      67      61      62      63      64
      65      66      67      68      69      70      71      62      63      64
      65      67      68      69      63      64      65      66      67      68
      69      64      65      66      67      65      66      67      66      67
       0      68      69      70      71      72      73      79      69      70
      71      70      71      72      73      74      75      76      79      80
      81      71      72      73      79      72      73      74      75      76
      77      78      79      80      81      82      83      73      74      75
      76      79      80      81      74      75      76      77      78      79
      80      81      75      76      77      78      79      76      77      78
      79      77      78      79      78       0      80      81      82      83
      84      85      95      81      82      83      82      83      84      85
      86      87      91      95      96      97      83      84      85      95
      84      85      86      87      88      89      90      91      92      93
      94      95      96      97      98      99      85      86      87      91
      95      96      97      86      87      88      89      90      91      92
      93      94      95      96      97      87      88      89      90      91
      92      93      94      95      88      89      90      91      92      93
      94      95      89      90      91      90      91      91      92      93
      94      95      93      94      94       0      96      97      98      99
     100     101     106      97      98      99      98      99     100     101
     102     103     104     106     107     108      99     100     101     106
     100     101     102     103     104     105     106     107     108     109
     110     101     102     103     104     106     107     108     102     103
     104     105     106     107     108     103     104     105     106     104
     105     106     105     106       0     107     108     109     110     111
     112     117     108     109     110     109     110     111     112     113
     114     115     117     118     119     110     111     112     117     111
     112     113     114     115     116     117     118     119     120     121
     112     113     114     115     117     118     119     113     114     115
     116     117     118     119     114     115     116     117     115     116
     117     116     117       0     118     119     120     121     122     123
     138     119     120     121     120     121     122     123     124     125
     126     138     139     140     121     122     123     138     122     123
     124     125     126     127     136     138     139     140     141     142
     123     124     125     126     138     139     140     124     125     126
     127     128     129     134     136     137     138     139     140     125
     126     127     136     138     126     127     136     138     127     128
     129     130     131     134     135     136     137     138     128     129
     130     131     132     134     136     137     129     130     131     136
     130     131     132     133     134     135     136     131     132     134
     132     133     134     135     136     137     133     134     135     136
     134     135     136     137     136     137     137       0     139     140
     141     142     143     144     157     140     141     142     141     142
     143     144     145     146     147     157     158     159     142     143
     144     157     143     144     145     146     147     148     149     153
     157     158     159     160     161     144     145     146     147     157
     158     159     145     146     147     148     149     150     151     152
     153     154     155     156     157     158     159     146     147     148
     149     153     157     147     148     149     153     157     148     149
     150     151     152     153     154     155     156     157     149     150
     151     152     153     154     155     156     150     151     152     153
     154     155     156     151     152     153     152     153     153     154
     155     156     155     156     156       0     158     159     160     161
     162     163     172     159     160     161     160     161     162     163
     164     165     166     172     173     174     161     162     163     172
     162     163     164     165     166     167     168     169     172     173
     174     175     176     163     164     165     166     172     173     174
     164     165     166     167     168     169     170     171     172     173
     174     165     166     167     168     169     172     166     167     168
     169     172     167     168     169     170     171     172     168     169
     170     171     169     170     171     170     171     171       0     173
     174     175     176     177     178     179     174     175     176     175
     176     177     178     179     180     181     176     177     178     179
     177     178     179     180     181     182     183     178     179     180
     181     179     180     181     180     181     182     183     184     185
     196     181     182     183     182     183     184     185     186     187
     188     196     197     198     183     184     185     196     184     185
     186     187     188     189     190     191     196     197     198     199
     200     185     186     187     188     196     197     198     186     187
     188     189     190     191     192     193     196     197     198     187
     188     189     190     191     196     188     189     190     191     196
     189     190     191     192     193     194     195     196     190     191
     192     193     191     192     193     192     193     194     195     193
     194     195     194     195     195       0     197     198     199     200
     201     202     206     198     199     200     199     200     201     202
     203     204     205     206     207     208     200     201     202     206
     201     202     203     204     205     206     207     208     209     210
     202     203     204     205     206     207     208     203     204     205
     206     207     208     204     205     206     205     206     206     207
     208     209     210     211     212     216     208     209     210     209
     210     211     212     213     214     215     216     217     218     210
     211     212     216     211     212     213     214     215     216     217
     218     219     220     212     213     214     215     216     217     218
     213     214     215     216     217     218     214     215     216     215
     216     216     217     218     219     220     221     222     235     218
     219     220     219     220     221     222     223     224     225     235
     236     237     220     221     222     235     221     222     223     224
     225     226     227     228     235     236     237     238     239     222
     223     224     225     235     236     237     223     224     225     226
     227     228     229     230     231     235     236     237     224     225
     226     227     228     235     225     226     227     228     235     226
     227     228     229     230     231     232     233     234     235     227
     228     229     230     231     228     229     230     231     229     230
     231     232     233     234     392     230     231     232     233     234
     231     232     233     234     232     233     234     392     393     394
     233     234     392     234     392     392     393     394     395     449
     450     236     237     238     239     240     241     250     237     238
     239     238     239     240     241     242     243     244     250     251
     252     239     240     241     250     240     241     242     243     244
     245     246     247     250     251     252     253     254     241     242
     243     244     250     251     252     242     243     244     245     246
     247     248     249     250     251     252     243     244     245     246
     247     250     244     245     246     247     250     245     246     247
     248     249     250     246     247     248     249     247     248     249
     248     249     249       0     251     252     253     254     255     256
     270     252     253     254     253     254     255     256     257     258
     259     270     271     272     254     255     256     270     255     256
     257     258     259     260     268     270     271     272     273     274
     256     257     258     259     270     271     272     257     258     259
     260     261     262     266     268     269     270     271     272     258
     259     260     268     270     259     260     268     270     260     261
     262     263     264     266     267     268     269     270     261     262
     263     264     265     266     268     269     262     263     264     268
     263     264     265     266     267     268     264     265     266     265
     266     267     268     269     266     267     268     267     268     269
     268     269     269       0     271     272     273     274     275     276
     289     272     273     274     273     274     275     276     277     278
     282     289     290     291     274     275     276     289     275     276
     277     278     279     280     281     282     283     284     285     289
     290     291     292     293     276     277     278     282     289     290
     291     277     278     279     280     281     282     283     284     285
     286     287     288     289     290     291     278     279     280     281
     282     283     284     285     289     279     280     281     282     283
     284     285     289     280     281     282     281     282     282     283
     284     285     286     287     288     289     284     285     286     287
     288     285     286     287     288     286     287     288     287     288
     288       0     290     291     292     293     294     295     299     291
     292     293     292     293     294     295     296     297     298     299
     300     301     293     294     295     299     294     295     296     297
     298     299     300     301     302     303     295     296     297     298
     299     300     301     296     297     298     299     300     301     297
     298     299     298     299     299     300     301     302     303     304
     305     323     301     302     303     302     303     304     305     306
     307     308     323     324     325     303     304     305     323     304
     305     306     307     308     309     322     323     324     325     326
     327     305     306     307     308     323     324     325     306     307
     308     309     310     311     313     320     322     323     324     325
     307     308     309     322     323     308     309     322     323     309
     310     311     312     313     314     318     320     321     322     323
     310     311     312     313     314     320     322     311     312     313
     322     312     313     314     315     316     320     322     313     314
     322     314     315     316     317     318     320     321     322     315
     316     317     318     319     320     322     316     317     318     322
     317     318     319     320     321     322     318     319     320     319
     320     321     322     320     321     322     321     322     322       0
     324     325     326     327     328     329     342     325     326     327
     326     327     328     329     330     331     332     342     343     344
     327     328     329     342     328     329     330     331     332     333
     334     338     342     343     344     345     346     329     330     331
     332     342     343     344     330     331     332     333     334     335
     336     337     338     339     340     341     342     343     344     331
     332     333     334     338     342     332     333     334     338     342
     333     334     335     336     337     338     339     340     341     342
     334     335     336     337     338     339     340     341     335     336
     337     338     339     340     341     336     337     338     337     338
     338     339     340     341     340     341     341       0     343     344
     345     346     347     348     358     344     345     346     345     346
     347     348     349     350     354     358     359     360     346     347
     348     358     347     348     349     350     351     352     353     354
     355     356     357     358     359     360     361     362     348     349
     350     354     358     359     360     349     350     351     352     353
     354     355     356     357     358     359     360     350     351     352
     353     354     355     356     357     358     351     352     353     354
     355     356     357     358     352     353     354     353     354     354
     355     356     357     358     356     357     357       0     359     360
     361     362     363     364     382     360     361     362     361     362
     363     364     365     366     367     382     383     384     362     363
     364     382     363     364     365     366     367     368     369     370
     382     383     384     385     386     364     365     366     367     382
     383     384     365     366     367     368     369     370     371     372
     373     382     383     384     366     367     368     369     370     382
     367     368     369     370     382     368     369     370     371     372
     373     374     375     382     369     370     371     372     373     370
     371     372     373     371     372     373     374     375     376     379
     372     373     374     375     373     374     375     374     375     376
     377     378     379     380     381     375     376     379     376     377
     378     379     380     381     377     378     379     380     381     378
     379     379     380     381     381       0     383     384     385     386
     387     388     389     384     385     386     385     386     387     388
     389     390     391     386     387     388     389     387     388     389
     390     391     388     389     390     391     389     390     391     390
     391     391       0     393     394     395     396     449     450     451
     452     394     395     449     450     395     396     397     398     449
     450     451     452     453     396     397     398     399     400     449
     450     451     452     453     454     455     397     398     399     400
     401     449     450     451     452     453     454     455     456     398
     399     400     451     452     453     454     455     399     400     401
     402     451     452     453     454     455     456     457     458     400
     401     453     456     401     402     403     453     456     457     458
     459     460     402     403     404     456     457     458     459     460
     403     404     405     456     457     458     459     460     461     462
     404     405     406     457     458     459     460     461     462     463
     464     405     406     407     459     460     461     462     463     464
     406     407     408     461     462     463     464     465     466     407
     408     409     410     461     462     463     464     465     466     408
     409     410     411     463     464     465     466     467     409     410
     411     412     465     466     467     468     469     410     411     465
     466     467     411     412     413     465     466     467     468     469
     470     471     412     413     414     467     468     469     470     471
     413     414     415     467     468     469     470     471     472     473
     414     415     416     468     469     470     471     472     473     474
     475     415     416     417     470     471     472     473     474     475
     416     417     418     472     473     474     475     476     477     417
     418     419     420     472     473     474     475     476     477     418
     419     420     421     474     475     476     477     478     419     420
     421     422     476     477     478     479     480     420     421     476
     477     478     421     422     423     476     477     478     479     480
     481     482     422     423     424     478     479     480     481     482
     423     424     425     478     479     480     481     482     483     484
     424     425     426     479     480     481     482     483     484     485
     486     425     426     427     481     482     483     484     485     486
     426     427     428     483     484     485     486     487     488     427
     428     429     430     483     484     485     486     487     488     428
     429     430     431     485     486     487     488     489     490     429
     430     431     432     487     488     489     490     491     492     430
     431     487     488     489     490     431     432     433     487     488
     489     490     491     492     493     494     432     433     434     489
     490     491     492     493     494     495     496     433     434     435
     489     490     491     492     493     494     495     496     497     498
     434     435     436     491     492     493     494     495     496     497
     498     499     500     435     436     437     493     494     495     496
     497     498     499     500     501     502     436     437     438     495
     496     497     498     499     500     501     502     503     504     437
     438     439     497     498     499     500     501     502     503     504
     505     506     438     439     440     499     500     501     502     503
     504     505     506     507     508     439     440     441     501     502
     503     504     505     506     507     508     509     510     440     441
     442     503     504     505     506     507     508     509     510     511
     512     441     442     443     505     506     507     508     509     510
     511     512     513     514     442     443     444     507     508     509
     510     511     512     513     514     515     516     443     444     445
     509     510     511     512     513     514     515     516     517     518
     444     445     446     511     512     513     514     515     516     517
     518     519     520     445     446     447     448     513     514     515
     516     517     518     519     520     446     447     448     515     516
     517     518     519     520     447     448     517     518     519     520
     448     519     520     519     520     450     451     452     451     452
     452     453     453     454     455     455       0     457     458     458
     459     460     459     460     460       0     462     463     464     463
     464     464       0     466       0     468     469     469     470     471
     470     471     471       0     473     474     475     474     475     475
       0     477       0     479     480     480     481     482     481     482
     482       0     484     485     486     485     486     486       0     488
       0     490     491     492     491     492     492     493     494     493
     494     494     495     496     495     496     496     497     498     497
     498     498     499     500     499     500     500     501     502     501
     502     502     503     504     503     504     504     505     506     505
     506     506     507     508     507     508     508     509     510     509
     510     510     511     512     511     512     512     513     514     513
     514     514     515     516     515     516     516     517     518     517
     518     518     519     520     519     520     520       0
%FLAG HBOND_ACOEF
%FORMAT(5E16.8)

%FLAG HBOND_BCOEF
%FORMAT(5E16.8)

%FLAG HBCUT
%FORMAT(5E16.8)

%FLAG AMBER_ATOM_TYPE
%FORMAT(20a4)
N3  H   H   H   CX  HP  HP  C   O   N   H   CX  H1  3C  H1  CT  HC  HC  HC  OH  
HO  C   O   N   H   CX  H1  CT  HC  HC  CA  CA  HA  CA  HA  CA  HA  CA  HA  CA  
HA  C   O   N   H   CX  H1  3C  H1  CT  HC  HC  HC  OH  HO  C   O   N   H   CX  
H1  2C  H1  H1  OH  HO  C   O   N   H   CX  H1  2C  HC  HC  CO  O2  O2  C   O   
N   H   CX  H1  3C  HC  CT  HC  HC  HC  CT  HC  HC  HC  C   O   N   H   CX  H1  
2C  H1  H1  OH  HO  C   O   N   H   CX  H1  2C  H1  H1  OH  HO  C   O   N   H   
CX  H1  CT  HC  HC  CA  CA  HA  CA  HA  C   OH  HO  CA  HA  CA  HA  C   O   N   
H   CX  H1  2C  HC  HC  3C  HC  CT  HC  HC  HC  CT  HC  HC  HC  C   O   N   H   
CX  H1  2C  HC  HC  2C  HC  HC  CO  O2  O2  C   O   N   H   CX  H1  H1  C   O   
N   H   CX  H1  2C  HC  HC  2C  HC  HC  C   O   N   H   H   C   O   N   H   CX  
H1  CT  HC  HC  HC  C   O   N   H   CX  H1  CT  HC  HC  HC  C   O   N   H   CX  
H1  C8  HC  HC  C8  HC  HC  C8  HC  HC  C8  HP  HP  N3  C   O   N   H   CX  H1  
2C  HC  HC  2C  HC  HC  CO  O2  O2  C   O   N   H   CX  H1  CT  HC  HC  CA  CA  
HA  CA  HA  CA  HA  CA  HA  CA  HA  C   O   N   H   CX  H1  3C  HC  CT  HC  HC  
HC  2C  HC  HC  CT  HC  HC  HC  C   O   N   H   CX  H1  CT  HC  HC  HC  C   O   
N   H   CX  H1  CT  HC  HC  C*  CW  H4  NA  H   CN  CA  HA  CA  HA  CA  HA  CA  
HA  CB  C   O   N   H   CX  H1  2C  HC  HC  3C  HC  CT  HC  HC  HC  CT  HC  HC  
HC  C   O   N   H   CX  H1  3C  HC  CT  HC  HC  HC  CT  HC  HC  HC  C   O   N   
H   CX  H1  C8  HC  HC  C8  HC  HC  C8  H1  H1  N2  H   CA  N2  H   H   N2  H   
H   C   O   N   H   CX  H1  H1  C   O2  O2  c   o   c3  c3  c3  n3  c   o   n   
c3  c3  os  c3  c3  os  c3  c   o   n   c3  c3  os  c3  c3  os  c3  c   o   n   
c3  c3  os  c3  c3  os  c3  c   o   c3  c3  c3  c3  c3  c3  c3  c3  c3  c3  c3  
c3  c3  c3  c3  c3  c   o   o   hc  hc  hc  hc  hc  hn  hn  hn  hc  hc  hc  hc  
hc  hc  hc  hc  hc  hc  hn  hc  hc  hc  hc  hc  hc  hc  hc  hc  hc  hn  hc  hc  
hc  hc  hc  hc  hc  hc  hc  hc  hc  hc  hc  hc  hc  hc  hc  hc  hc  hc  hc  hc  
hc  hc  hc  hc  hc  hc  hc  hc  hc  hc  hc  hc  hc  hc  hc  hc  hc  hc  hc  hc  
%FLAG TREE_CHAIN_CLASSIFICATION
%FORMAT(20a4)
BLA BLA BLA BLA BLA BLA BLA BLA BLA M   E   M   E   3   E   3   E   E   E   S   
E   M   E   M   E   M   E   3   E   E   B   B   E   B   E   B   E   S   E   S   
E   M   E   M   E   M   E   3   E   3   E   E   E   S   E   M   E   M   E   M   
E   3   E   E   S   E   M   E   M   E   M   E   3   E   E   B   E   E   M   E   
M   E   M   E   3   E   3   E   E   E   3   E   E   E   M   E   M   E   M   E   
3   E   E   S   E   M   E   M   E   M   E   3   E   E   S   E   M   E   M   E   
M   E   3   E   E   B   B   E   B   E   B   S   E   S   E   S   E   M   E   M   
E   M   E   3   E   E   3   E   3   E   E   E   3   E   E   E   M   E   M   E   
M   E   3   E   E   3   E   E   B   E   E   M   E   M   E   M   E   E   M   E   
M   E   M   E   3   E   E   3   E   E   B   E   B   E   E   M   E   M   E   M   
E   3   E   E   E   M   E   M   E   M   E   3   E   E   E   M   E   M   E   M   
E   3   E   E   3   E   E   3   E   E   3   E   E   E   M   E   M   E   M   E   
3   E   E   3   E   E   B   E   E   M   E   M   E   M   E   3   E   E   B   B   
E   B   E   B   E   S   E   S   E   M   E   M   E   M   E   3   E   3   E   E   
E   3   E   E   3   E   E   E   M   E   M   E   M   E   3   E   E   E   M   E   
M   E   M   E   3   E   E   B   B   E   B   E   S   B   E   B   E   B   E   S   
E   E   M   E   M   E   M   E   3   E   E   3   E   3   E   E   E   3   E   E   
E   M   E   M   E   M   E   3   E   3   E   E   E   3   E   E   E   M   E   M   
E   M   E   3   E   E   3   E   E   3   E   E   B   E   B   B   E   E   B   E   
E   M   E   BLA BLA BLA BLA BLA BLA BLA BLA BLA BLA BLA BLA BLA BLA BLA BLA BLA 
BLA BLA BLA BLA BLA BLA BLA BLA BLA BLA BLA BLA BLA BLA BLA BLA BLA BLA BLA BLA 
BLA BLA BLA BLA BLA BLA BLA BLA BLA BLA BLA BLA BLA BLA BLA BLA BLA BLA BLA BLA 
BLA BLA BLA BLA BLA BLA BLA BLA BLA BLA BLA BLA BLA BLA BLA BLA BLA BLA BLA BLA 
BLA BLA BLA BLA BLA BLA BLA BLA BLA BLA BLA BLA BLA BLA BLA BLA BLA BLA BLA BLA 
BLA BLA BLA BLA BLA BLA BLA BLA BLA BLA BLA BLA BLA BLA BLA BLA BLA BLA BLA BLA 
BLA BLA BLA BLA BLA BLA BLA BLA BLA BLA BLA BLA BLA BLA BLA BLA BLA BLA BLA BLA 
%FLAG JOIN_ARRAY
%FORMAT(10I8)
       0       0       0       0       0       0       0       0       0       0
       0       0       0       0       0       0       0       0       0       0
       0       0       0       0       0       0       0       0       0       0
       0       0       0       0       0       0       0       0       0       0
       0       0       0       0       0       0       0       0       0       0
       0       0       0       0       0       0       0       0       0       0
       0       0       0       0       0       0       0       0       0       0
       0       0       0       0       0       0       0       0       0       0
       0       0       0       0       0       0       0       0       0       0
       0       0       0       0       0       0       0       0       0       0
       0       0       0       0       0       0       0       0       0       0
       0       0       0       0       0       0       0       0       0       0
       0       0       0       0       0       0       0       0       0       0
       0       0       0       0       0       0       0       0       0       0
       0       0       0       0       0       0       0       0       0       0
       0       0       0       0       0       0       0       0       0       0
       0       0       0       0       0       0       0       0       0       0
       0       0       0       0       0       0       0       0       0       0
       0       0       0       0       0       0       0       0       0       0
       0       0       0       0       0       0       0       0       0       0
       0       0       0       0       0       0       0       0       0       0
       0       0       0       0       0       0       0       0       0       0
       0       0       0       0       0       0       0       0       0       0
       0       0       0       0       0       0       0       0       0       0
       0       0       0       0       0       0       0       0       0       0
       0       0       0       0       0       0       0       0       0       0
       0       0       0       0       0       0       0       0       0       0
       0       0       0       0       0       0       0       0       0       0
       0       0       0       0       0       0       0       0       0       0
       0       0       0       0       0       0       0       0       0       0
       0       0       0       0       0       0       0       0       0       0
       0       0       0       0       0       0       0       0       0       0
       0       0       0       0       0       0       0       0       0       0
       0       0       0       0       0       0       0       0       0       0
       0       0       0       0       0       0       0       0       0       0
       0       0       0       0       0       0       0       0       0       0
       0       0       0       0       0       0       0       0       0       0
       0       0       0       0       0       0       0       0       0       0
       0       0       0       0       0       0       0       0       0       0
       0       0       0       0       0       0       0       0       0       0
       0       0       0       0       0       0       0       0       0       0
       0       0       0       0       0       0       0       0       0       0
       0       0       0       0       0       0       0       0       0       0
       0       0       0       0       0       0       0       0       0       0
       0       0       0       0       0       0       0       0       0       0
       0       0       0       0       0       0       0       0       0       0
       0       0       0       0       0       0       0       0       0       0
       0       0       0       0       0       0       0       0       0       0
       0       0       0       0       0       0       0       0       0       0
       0       0       0       0       0       0       0       0       0       0
       0       0       0       0       0       0       0       0       0       0
       0       0       0       0       0       0       0       0       0       0
%FLAG IROTAT
%FORMAT(10I8)
       0       0       0       0       0       0       0       0       0       0
       0       0       0       0       0       0       0       0       0       0
       0       0       0       0       0       0       0       0       0       0
       0       0       0       0       0       0       0       0       0       0
       0       0       0       0       0       0       0       0       0       0
       0       0       0       0       0       0       0       0       0       0
       0       0       0       0       0       0       0       0       0       0
       0       0       0       0       0       0       0       0       0       0
       0       0       0       0       0       0       0       0       0       0
       0       0       0       0       0       0       0       0       0       0
       0       0       0       0       0       0       0       0       0       0
       0       0       0       0       0       0       0       0       0       0
       0       0       0       0       0       0       0       0       0       0
       0       0       0       0       0       0       0       0       0       0
       0       0       0       0       0       0       0       0       0       0
       0       0       0       0       0       0       0       0       0       0
       0       0       0       0       0       0       0       0       0       0
       0       0       0       0       0       0       0       0       0       0
       0       0       0       0       0       0       0       0       0       0
       0       0       0       0       0       0       0       0       0       0
       0       0       0       0       0       0       0       0       0       0
       0       0       0       0       0       0       0       0       0       0
       0       0       0       0       0       0       0       0       0       0
       0       0       0       0       0       0       0       0       0       0
       0       0       0       0       0       0       0       0       0       0
       0       0       0       0       0       0       0       0       0       0
       0       0       0       0       0       0       0       0       0       0
       0       0       0       0       0       0       0       0       0       0
       0       0       0       0       0       0       0       0       0       0
       0       0       0       0       0       0       0       0       0       0
       0       0       0       0       0       0       0       0       0       0
       0       0       0       0       0       0       0       0       0       0
       0       0       0       0       0       0       0       0       0       0
       0       0       0       0       0       0       0       0       0       0
       0       0       0       0       0       0       0       0       0       0
       0       0       0       0       0       0       0       0       0       0
       0       0       0       0       0       0       0       0       0       0
       0       0       0       0       0       0       0       0       0       0
       0       0       0       0       0       0       0       0       0       0
       0       0       0       0       0       0       0       0       0       0
       0       0       0       0       0       0       0       0       0       0
       0       0       0       0       0       0       0       0       0       0
       0       0       0       0       0       0       0       0       0       0
       0       0       0       0       0       0       0       0       0       0
       0       0       0       0       0       0       0       0       0       0
       0       0       0       0       0       0       0       0       0       0
       0       0       0       0       0       0       0       0       0       0
       0       0       0       0       0       0       0       0       0       0
       0       0       0       0       0       0       0       0       0       0
       0       0       0       0       0       0       0       0       0       0
       0       0       0       0       0       0       0       0       0       0
       0       0       0       0       0       0       0       0       0       0
%FLAG RADIUS_SET
%FORMAT(1a80)
H(N)-modified Bondi radii (mbondi2)                                             
%FLAG RADII
%FORMAT(5E16.8)
  1.55000000E+00  1.30000000E+00  1.30000000E+00  1.30000000E+00  1.70000000E+00
  1.20000000E+00  1.20000000E+00  1.70000000E+00  1.50000000E+00  1.55000000E+00
  1.30000000E+00  1.70000000E+00  1.20000000E+00  1.70000000E+00  1.20000000E+00
  1.70000000E+00  1.20000000E+00  1.20000000E+00  1.20000000E+00  1.50000000E+00
  1.20000000E+00  1.70000000E+00  1.50000000E+00  1.55000000E+00  1.30000000E+00
  1.70000000E+00  1.20000000E+00  1.70000000E+00  1.20000000E+00  1.20000000E+00
  1.70000000E+00  1.70000000E+00  1.20000000E+00  1.70000000E+00  1.20000000E+00
  1.70000000E+00  1.20000000E+00  1.70000000E+00  1.20000000E+00  1.70000000E+00
  1.20000000E+00  1.70000000E+00  1.50000000E+00  1.55000000E+00  1.30000000E+00
  1.70000000E+00  1.20000000E+00  1.70000000E+00  1.20000000E+00  1.70000000E+00
  1.20000000E+00  1.20000000E+00  1.20000000E+00  1.50000000E+00  1.20000000E+00
  1.70000000E+00  1.50000000E+00  1.55000000E+00  1.30000000E+00  1.70000000E+00
  1.20000000E+00  1.70000000E+00  1.20000000E+00  1.20000000E+00  1.50000000E+00
  1.20000000E+00  1.70000000E+00  1.50000000E+00  1.55000000E+00  1.30000000E+00
  1.70000000E+00  1.20000000E+00  1.70000000E+00  1.20000000E+00  1.20000000E+00
  1.70000000E+00  1.50000000E+00  1.50000000E+00  1.70000000E+00  1.50000000E+00
  1.55000000E+00  1.30000000E+00  1.70000000E+00  1.20000000E+00  1.70000000E+00
  1.20000000E+00  1.70000000E+00  1.20000000E+00  1.20000000E+00  1.20000000E+00
  1.70000000E+00  1.20000000E+00  1.20000000E+00  1.20000000E+00  1.70000000E+00
  1.50000000E+00  1.55000000E+00  1.30000000E+00  1.70000000E+00  1.20000000E+00
  1.70000000E+00  1.20000000E+00  1.20000000E+00  1.50000000E+00  1.20000000E+00
  1.70000000E+00  1.50000000E+00  1.55000000E+00  1.30000000E+00  1.70000000E+00
  1.20000000E+00  1.70000000E+00  1.20000000E+00  1.20000000E+00  1.50000000E+00
  1.20000000E+00  1.70000000E+00  1.50000000E+00  1.55000000E+00  1.30000000E+00
  1.70000000E+00  1.20000000E+00  1.70000000E+00  1.20000000E+00  1.20000000E+00
  1.70000000E+00  1.70000000E+00  1.20000000E+00  1.70000000E+00  1.20000000E+00
  1.70000000E+00  1.50000000E+00  1.20000000E+00  1.70000000E+00  1.20000000E+00
  1.70000000E+00  1.20000000E+00  1.70000000E+00  1.50000000E+00  1.55000000E+00
  1.30000000E+00  1.70000000E+00  1.20000000E+00  1.70000000E+00  1.20000000E+00
  1.20000000E+00  1.70000000E+00  1.20000000E+00  1.70000000E+00  1.20000000E+00
  1.20000000E+00  1.20000000E+00  1.70000000E+00  1.20000000E+00  1.20000000E+00
  1.20000000E+00  1.70000000E+00  1.50000000E+00  1.55000000E+00  1.30000000E+00
  1.70000000E+00  1.20000000E+00  1.70000000E+00  1.20000000E+00  1.20000000E+00
  1.70000000E+00  1.20000000E+00  1.20000000E+00  1.70000000E+00  1.50000000E+00
  1.50000000E+00  1.70000000E+00  1.50000000E+00  1.55000000E+00  1.30000000E+00
  1.70000000E+00  1.20000000E+00  1.20000000E+00  1.70000000E+00  1.50000000E+00
  1.55000000E+00  1.30000000E+00  1.70000000E+00  1.20000000E+00  1.70000000E+00
  1.20000000E+00  1.20000000E+00  1.70000000E+00  1.20000000E+00  1.20000000E+00
  1.70000000E+00  1.50000000E+00  1.55000000E+00  1.30000000E+00  1.30000000E+00
  1.70000000E+00  1.50000000E+00  1.55000000E+00  1.30000000E+00  1.70000000E+00
  1.20000000E+00  1.70000000E+00  1.20000000E+00  1.20000000E+00  1.20000000E+00
  1.70000000E+00  1.50000000E+00  1.55000000E+00  1.30000000E+00  1.70000000E+00
  1.20000000E+00  1.70000000E+00  1.20000000E+00  1.20000000E+00  1.20000000E+00
  1.70000000E+00  1.50000000E+00  1.55000000E+00  1.30000000E+00  1.70000000E+00
  1.20000000E+00  1.70000000E+00  1.20000000E+00  1.20000000E+00  1.70000000E+00
  1.20000000E+00  1.20000000E+00  1.70000000E+00  1.20000000E+00  1.20000000E+00
  1.70000000E+00  1.20000000E+00  1.20000000E+00  1.55000000E+00  1.70000000E+00
  1.50000000E+00  1.55000000E+00  1.30000000E+00  1.70000000E+00  1.20000000E+00
  1.70000000E+00  1.20000000E+00  1.20000000E+00  1.70000000E+00  1.20000000E+00
  1.20000000E+00  1.70000000E+00  1.50000000E+00  1.50000000E+00  1.70000000E+00
  1.50000000E+00  1.55000000E+00  1.30000000E+00  1.70000000E+00  1.20000000E+00
  1.70000000E+00  1.20000000E+00  1.20000000E+00  1.70000000E+00  1.70000000E+00
  1.20000000E+00  1.70000000E+00  1.20000000E+00  1.70000000E+00  1.20000000E+00
  1.70000000E+00  1.20000000E+00  1.70000000E+00  1.20000000E+00  1.70000000E+00
  1.50000000E+00  1.55000000E+00  1.30000000E+00  1.70000000E+00  1.20000000E+00
  1.70000000E+00  1.20000000E+00  1.70000000E+00  1.20000000E+00  1.20000000E+00
  1.20000000E+00  1.70000000E+00  1.20000000E+00  1.20000000E+00  1.70000000E+00
  1.20000000E+00  1.20000000E+00  1.20000000E+00  1.70000000E+00  1.50000000E+00
  1.55000000E+00  1.30000000E+00  1.70000000E+00  1.20000000E+00  1.70000000E+00
  1.20000000E+00  1.20000000E+00  1.20000000E+00  1.70000000E+00  1.50000000E+00
  1.55000000E+00  1.30000000E+00  1.70000000E+00  1.20000000E+00  1.70000000E+00
  1.20000000E+00  1.20000000E+00  1.70000000E+00  1.70000000E+00  1.20000000E+00
  1.55000000E+00  1.30000000E+00  1.70000000E+00  1.70000000E+00  1.20000000E+00
  1.70000000E+00  1.20000000E+00  1.70000000E+00  1.20000000E+00  1.70000000E+00
  1.20000000E+00  1.70000000E+00  1.70000000E+00  1.50000000E+00  1.55000000E+00
  1.30000000E+00  1.70000000E+00  1.20000000E+00  1.70000000E+00  1.20000000E+00
  1.20000000E+00  1.70000000E+00  1.20000000E+00  1.70000000E+00  1.20000000E+00
  1.20000000E+00  1.20000000E+00  1.70000000E+00  1.20000000E+00  1.20000000E+00
  1.20000000E+00  1.70000000E+00  1.50000000E+00  1.55000000E+00  1.30000000E+00
  1.70000000E+00  1.20000000E+00  1.70000000E+00  1.20000000E+00  1.70000000E+00
  1.20000000E+00  1.20000000E+00  1.20000000E+00  1.70000000E+00  1.20000000E+00
  1.20000000E+00  1.20000000E+00  1.70000000E+00  1.50000000E+00  1.55000000E+00
  1.30000000E+00  1.70000000E+00  1.20000000E+00  1.70000000E+00  1.20000000E+00
  1.20000000E+00  1.70000000E+00  1.20000000E+00  1.20000000E+00  1.70000000E+00
  1.20000000E+00  1.20000000E+00  1.55000000E+00  1.30000000E+00  1.70000000E+00
  1.55000000E+00  1.30000000E+00  1.30000000E+00  1.55000000E+00  1.30000000E+00
  1.30000000E+00  1.70000000E+00  1.50000000E+00  1.55000000E+00  1.30000000E+00
  1.70000000E+00  1.20000000E+00  1.20000000E+00  1.70000000E+00  1.50000000E+00
  1.50000000E+00  1.70000000E+00  1.50000000E+00  1.70000000E+00  1.70000000E+00
  1.70000000E+00  1.55000000E+00  1.70000000E+00  1.50000000E+00  1.55000000E+00
  1.70000000E+00  1.70000000E+00  1.50000000E+00  1.70000000E+00  1.70000000E+00
  1.50000000E+00  1.70000000E+00  1.70000000E+00  1.50000000E+00  1.55000000E+00
  1.70000000E+00  1.70000000E+00  1.50000000E+00  1.70000000E+00  1.70000000E+00
  1.50000000E+00  1.70000000E+00  1.70000000E+00  1.50000000E+00  1.55000000E+00
  1.70000000E+00  1.70000000E+00  1.50000000E+00  1.70000000E+00  1.70000000E+00
  1.50000000E+00  1.70000000E+00  1.70000000E+00  1.50000000E+00  1.70000000E+00
  1.70000000E+00  1.70000000E+00  1.70000000E+00  1.70000000E+00  1.70000000E+00
  1.70000000E+00  1.70000000E+00  1.70000000E+00  1.70000000E+00  1.70000000E+00
  1.70000000E+00  1.70000000E+00  1.70000000E+00  1.70000000E+00  1.70000000E+00
  1.70000000E+00  1.50000000E+00  1.50000000E+00  1.20000000E+00  1.20000000E+00
  1.20000000E+00  1.20000000E+00  1.20000000E+00  1.30000000E+00  1.30000000E+00
  1.30000000E+00  1.20000000E+00  1.20000000E+00  1.20000000E+00  1.20000000E+00
  1.20000000E+00  1.20000000E+00  1.20000000E+00  1.20000000E+00  1.20000000E+00
  1.20000000E+00  1.30000000E+00  1.20000000E+00  1.20000000E+00  1.20000000E+00
  1.20000000E+00  1.20000000E+00  1.20000000E+00  1.20000000E+00  1.20000000E+00
  1.20000000E+00  1.20000000E+00  1.30000000E+00  1.20000000E+00  1.20000000E+00
  1.20000000E+00  1.20000000E+00  1.20000000E+00  1.20000000E+00  1.20000000E+00
  1.20000000E+00  1.20000000E+00  1.20000000E+00  1.20000000E+00  1.20000000E+00
  1.20000000E+00  1.20000000E+00  1.20000000E+00  1.20000000E+00  1.20000000E+00
  1.20000000E+00  1.20000000E+00  1.20000000E+00  1.20000000E+00  1.20000000E+00
  1.20000000E+00  1.20000000E+00  1.20000000E+00  1.20000000E+00  1.20000000E+00
  1.20000000E+00  1.20000000E+00  1.20000000E+00  1.20000000E+00  1.20000000E+00
  1.20000000E+00  1.20000000E+00  1.20000000E+00  1.20000000E+00  1.20000000E+00
  1.20000000E+00  1.20000000E+00  1.20000000E+00  1.20000000E+00  1.20000000E+00
%FLAG SCREEN
%FORMAT(5E16.8)
  7.90000000E-01  8.50000000E-01  8.50000000E-01  8.50000000E-01  7.20000000E-01
  8.50000000E-01  8.50000000E-01  7.20000000E-01  8.50000000E-01  7.90000000E-01
  8.50000000E-01  7.20000000E-01  8.50000000E-01  7.20000000E-01  8.50000000E-01
  7.20000000E-01  8.50000000E-01  8.50000000E-01  8.50000000E-01  8.50000000E-01
  8.50000000E-01  7.20000000E-01  8.50000000E-01  7.90000000E-01  8.50000000E-01
  7.20000000E-01  8.50000000E-01  7.20000000E-01  8.50000000E-01  8.50000000E-01
  7.20000000E-01  7.20000000E-01  8.50000000E-01  7.20000000E-01  8.50000000E-01
  7.20000000E-01  8.50000000E-01  7.20000000E-01  8.50000000E-01  7.20000000E-01
  8.50000000E-01  7.20000000E-01  8.50000000E-01  7.90000000E-01  8.50000000E-01
  7.20000000E-01  8.50000000E-01  7.20000000E-01  8.50000000E-01  7.20000000E-01
  8.50000000E-01  8.50000000E-01  8.50000000E-01  8.50000000E-01  8.50000000E-01
  7.20000000E-01  8.50000000E-01  7.90000000E-01  8.50000000E-01  7.20000000E-01
  8.50000000E-01  7.20000000E-01  8.50000000E-01  8.50000000E-01  8.50000000E-01
  8.50000000E-01  7.20000000E-01  8.50000000E-01  7.90000000E-01  8.50000000E-01
  7.20000000E-01  8.50000000E-01  7.20000000E-01  8.50000000E-01  8.50000000E-01
  7.20000000E-01  8.50000000E-01  8.50000000E-01  7.20000000E-01  8.50000000E-01
  7.90000000E-01  8.50000000E-01  7.20000000E-01  8.50000000E-01  7.20000000E-01
  8.50000000E-01  7.20000000E-01  8.50000000E-01  8.50000000E-01  8.50000000E-01
  7.20000000E-01  8.50000000E-01  8.50000000E-01  8.50000000E-01  7.20000000E-01
  8.50000000E-01  7.90000000E-01  8.50000000E-01  7.20000000E-01  8.50000000E-01
  7.20000000E-01  8.50000000E-01  8.50000000E-01  8.50000000E-01  8.50000000E-01
  7.20000000E-01  8.50000000E-01  7.90000000E-01  8.50000000E-01  7.20000000E-01
  8.50000000E-01  7.20000000E-01  8.50000000E-01  8.50000000E-01  8.50000000E-01
  8.50000000E-01  7.20000000E-01  8.50000000E-01  7.90000000E-01  8.50000000E-01
  7.20000000E-01  8.50000000E-01  7.20000000E-01  8.50000000E-01  8.50000000E-01
  7.20000000E-01  7.20000000E-01  8.50000000E-01  7.20000000E-01  8.50000000E-01
  7.20000000E-01  8.50000000E-01  8.50000000E-01  7.20000000E-01  8.50000000E-01
  7.20000000E-01  8.50000000E-01  7.20000000E-01  8.50000000E-01  7.90000000E-01
  8.50000000E-01  7.20000000E-01  8.50000000E-01  7.20000000E-01  8.50000000E-01
  8.50000000E-01  7.20000000E-01  8.50000000E-01  7.20000000E-01  8.50000000E-01
  8.50000000E-01  8.50000000E-01  7.20000000E-01  8.50000000E-01  8.50000000E-01
  8.50000000E-01  7.20000000E-01  8.50000000E-01  7.90000000E-01  8.50000000E-01
  7.20000000E-01  8.50000000E-01  7.20000000E-01  8.50000000E-01  8.50000000E-01
  7.20000000E-01  8.50000000E-01  8.50000000E-01  7.20000000E-01  8.50000000E-01
  8.50000000E-01  7.20000000E-01  8.50000000E-01  7.90000000E-01  8.50000000E-01
  7.20000000E-01  8.50000000E-01  8.50000000E-01  7.20000000E-01  8.50000000E-01
  7.90000000E-01  8.50000000E-01  7.20000000E-01  8.50000000E-01  7.20000000E-01
  8.50000000E-01  8.50000000E-01  7.20000000E-01  8.50000000E-01  8.50000000E-01
  7.20000000E-01  8.50000000E-01  7.90000000E-01  8.50000000E-01  8.50000000E-01
  7.20000000E-01  8.50000000E-01  7.90000000E-01  8.50000000E-01  7.20000000E-01
  8.50000000E-01  7.20000000E-01  8.50000000E-01  8.50000000E-01  8.50000000E-01
  7.20000000E-01  8.50000000E-01  7.90000000E-01  8.50000000E-01  7.20000000E-01
  8.50000000E-01  7.20000000E-01  8.50000000E-01  8.50000000E-01  8.50000000E-01
  7.20000000E-01  8.50000000E-01  7.90000000E-01  8.50000000E-01  7.20000000E-01
  8.50000000E-01  7.20000000E-01  8.50000000E-01  8.50000000E-01  7.20000000E-01
  8.50000000E-01  8.50000000E-01  7.20000000E-01  8.50000000E-01  8.50000000E-01
  7.20000000E-01  8.50000000E-01  8.50000000E-01  7.90000000E-01  7.20000000E-01
  8.50000000E-01  7.90000000E-01  8.50000000E-01  7.20000000E-01  8.50000000E-01
  7.20000000E-01  8.50000000E-01  8.50000000E-01  7.20000000E-01  8.50000000E-01
  8.50000000E-01  7.20000000E-01  8.50000000E-01  8.50000000E-01  7.20000000E-01
  8.50000000E-01  7.90000000E-01  8.50000000E-01  7.20000000E-01  8.50000000E-01
  7.20000000E-01  8.50000000E-01  8.50000000E-01  7.20000000E-01  7.20000000E-01
  8.50000000E-01  7.20000000E-01  8.50000000E-01  7.20000000E-01  8.50000000E-01
  7.20000000E-01  8.50000000E-01  7.20000000E-01  8.50000000E-01  7.20000000E-01
  8.50000000E-01  7.90000000E-01  8.50000000E-01  7.20000000E-01  8.50000000E-01
  7.20000000E-01  8.50000000E-01  7.20000000E-01  8.50000000E-01  8.50000000E-01
  8.50000000E-01  7.20000000E-01  8.50000000E-01  8.50000000E-01  7.20000000E-01
  8.50000000E-01  8.50000000E-01  8.50000000E-01  7.20000000E-01  8.50000000E-01
  7.90000000E-01  8.50000000E-01  7.20000000E-01  8.50000000E-01  7.20000000E-01
  8.50000000E-01  8.50000000E-01  8.50000000E-01  7.20000000E-01  8.50000000E-01
  7.90000000E-01  8.50000000E-01  7.20000000E-01  8.50000000E-01  7.20000000E-01
  8.50000000E-01  8.50000000E-01  7.20000000E-01  7.20000000E-01  8.50000000E-01
  7.90000000E-01  8.50000000E-01  7.20000000E-01  7.20000000E-01  8.50000000E-01
  7.20000000E-01  8.50000000E-01  7.20000000E-01  8.50000000E-01  7.20000000E-01
  8.50000000E-01  7.20000000E-01  7.20000000E-01  8.50000000E-01  7.90000000E-01
  8.50000000E-01  7.20000000E-01  8.50000000E-01  7.20000000E-01  8.50000000E-01
  8.50000000E-01  7.20000000E-01  8.50000000E-01  7.20000000E-01  8.50000000E-01
  8.50000000E-01  8.50000000E-01  7.20000000E-01  8.50000000E-01  8.50000000E-01
  8.50000000E-01  7.20000000E-01  8.50000000E-01  7.90000000E-01  8.50000000E-01
  7.20000000E-01  8.50000000E-01  7.20000000E-01  8.50000000E-01  7.20000000E-01
  8.50000000E-01  8.50000000E-01  8.50000000E-01  7.20000000E-01  8.50000000E-01
  8.50000000E-01  8.50000000E-01  7.20000000E-01  8.50000000E-01  7.90000000E-01
  8.50000000E-01  7.20000000E-01  8.50000000E-01  7.20000000E-01  8.50000000E-01
  8.50000000E-01  7.20000000E-01  8.50000000E-01  8.50000000E-01  7.20000000E-01
  8.50000000E-01  8.50000000E-01  7.90000000E-01  8.50000000E-01  7.20000000E-01
  7.90000000E-01  8.50000000E-01  8.50000000E-01  7.90000000E-01  8.50000000E-01
  8.50000000E-01  7.20000000E-01  8.50000000E-01  7.90000000E-01  8.50000000E-01
  7.20000000E-01  8.50000000E-01  8.50000000E-01  7.20000000E-01  8.50000000E-01
  8.50000000E-01  7.20000000E-01  8.50000000E-01  7.20000000E-01  7.20000000E-01
  7.20000000E-01  7.90000000E-01  7.20000000E-01  8.50000000E-01  7.90000000E-01
  7.20000000E-01  7.20000000E-01  8.50000000E-01  7.20000000E-01  7.20000000E-01
  8.50000000E-01  7.20000000E-01  7.20000000E-01  8.50000000E-01  7.90000000E-01
  7.20000000E-01  7.20000000E-01  8.50000000E-01  7.20000000E-01  7.20000000E-01
  8.50000000E-01  7.20000000E-01  7.20000000E-01  8.50000000E-01  7.90000000E-01
  7.20000000E-01  7.20000000E-01  8.50000000E-01  7.20000000E-01  7.20000000E-01
  8.50000000E-01  7.20000000E-01  7.20000000E-01  8.50000000E-01  7.20000000E-01
  7.20000000E-01  7.20000000E-01  7.20000000E-01  7.20000000E-01  7.20000000E-01
  7.20000000E-01  7.20000000E-01  7.20000000E-01  7.20000000E-01  7.20000000E-01
  7.20000000E-01  7.20000000E-01  7.20000000E-01  7.20000000E-01  7.20000000E-01
  7.20000000E-01  8.50000000E-01  8.50000000E-01  8.50000000E-01  8.50000000E-01
  8.50000000E-01  8.50000000E-01  8.50000000E-01  8.50000000E-01  8.50000000E-01
  8.50000000E-01  8.50000000E-01  8.50000000E-01  8.50000000E-01  8.50000000E-01
  8.50000000E-01  8.50000000E-01  8.50000000E-01  8.50000000E-01  8.50000000E-01
  8.50000000E-01  8.50000000E-01  8.50000000E-01  8.50000000E-01  8.50000000E-01
  8.50000000E-01  8.50000000E-01  8.50000000E-01  8.50000000E-01  8.50000000E-01
  8.50000000E-01  8.50000000E-01  8.50000000E-01  8.50000000E-01  8.50000000E-01
  8.50000000E-01  8.50000000E-01  8.50000000E-01  8.50000000E-01  8.50000000E-01
  8.50000000E-01  8.50000000E-01  8.50000000E-01  8.50000000E-01  8.50000000E-01
  8.50000000E-01  8.50000000E-01  8.50000000E-01  8.50000000E-01  8.50000000E-01
  8.50000000E-01  8.50000000E-01  8.50000000E-01  8.50000000E-01  8.50000000E-01
  8.50000000E-01  8.50000000E-01  8.50000000E-01  8.50000000E-01  8.50000000E-01
  8.50000000E-01  8.50000000E-01  8.50000000E-01  8.50000000E-01  8.50000000E-01
  8.50000000E-01  8.50000000E-01  8.50000000E-01  8.50000000E-01  8.50000000E-01
  8.50000000E-01  8.50000000E-01  8.50000000E-01  8.50000000E-01  8.50000000E-01
%FLAG IPOL
%FORMAT(1I8)
       0
