%VERSION  VERSION_STAMP = V0001.000  DATE = 07/20/26  15:34:52
%FLAG TITLE
%FORMAT(20a4)
default_name
%FLAG POINTERS
%FORMAT(10I8)
      58      20      37      20      91      20     145      25       0       0
     328       1      20      20      25       4       7      13      40       0
       0       0       0       0       0       0       0       0      58       0
       0
%FLAG ATOM_NAME
%FORMAT(20a4)
C1X O1D O2D C01 C02 C03 C04 C05 C06 C07 C08 C09 C10 C11 C12 C13 C14 C15 C16 C17 
C18 H1A H1B H2A H2B H3A H3B H4A H4B H5A H5B H6A H6B H7A H7B H8A H8B H9A H9B H10A
H10BH11AH11BH12AH12BH13AH13BH14AH14BH15AH15BH16AH16BH17AH17BH18AH18BH18C
%FLAG CHARGE
%FORMAT(5E16.8)
  1.51846426E+01 -1.73549185E+01 -1.73549185E+01 -2.60396667E+00 -2.60396667E+00
 -2.60396667E+00 -2.60396667E+00 -2.60396667E+00 -2.60396667E+00 -2.60396667E+00
 -2.60396667E+00 -2.56934430E+00 -2.60396667E+00 -2.60396667E+00 -2.60396667E+00
 -2.60396667E+00 -2.60396667E+00 -2.60396667E+00 -2.60396667E+00 -2.60396667E+00
 -2.60396667E+00  1.30107222E+00  1.30107222E+00  1.30107222E+00  1.30107222E+00
  1.30107222E+00  1.30107222E+00  1.30107222E+00  1.30107222E+00  1.30107222E+00
  1.30107222E+00  1.30107222E+00  1.30107222E+00  1.30107222E+00  1.30107222E+00
  1.30107222E+00  1.30107222E+00  1.30107222E+00  1.30107222E+00  1.30107222E+00
  1.30107222E+00  1.30107222E+00  1.30107222E+00  1.30107222E+00  1.30107222E+00
  1.30107222E+00  1.30107222E+00  1.30107222E+00  1.30107222E+00  1.30107222E+00
  1.30107222E+00  1.30107222E+00  1.30107222E+00  1.30107222E+00  1.30107222E+00
  1.30107222E+00  1.30107222E+00  1.30107222E+00
%FLAG ATOMIC_NUMBER
%FORMAT(10I8)
       6       8       8       6       6       6       6       6       6       6
       6       6       6       6       6       6       6       6       6       6
       6       1       1       1       1       1       1       1       1       1
       1       1       1       1       1       1       1       1       1       1
       1       1       1       1       1       1       1       1       1       1
       1       1       1       1       1       1       1       1
%FLAG MASS
%FORMAT(5E16.8)
  1.20100000E+01  1.60000000E+01  1.60000000E+01  1.20100000E+01  1.20100000E+01
  1.20100000E+01  1.20100000E+01  1.20100000E+01  1.20100000E+01  1.20100000E+01
  1.20100000E+01  1.20100000E+01  1.20100000E+01  1.20100000E+01  1.20100000E+01
  1.20100000E+01  1.20100000E+01  1.20100000E+01  1.20100000E+01  1.20100000E+01
  1.20100000E+01  1.00800000E+00  1.00800000E+00  1.00800000E+00  1.00800000E+00
  1.00800000E+00  1.00800000E+00  1.00800000E+00  1.00800000E+00  1.00800000E+00
  1.00800000E+00  1.00800000E+00  1.00800000E+00  1.00800000E+00  1.00800000E+00
  1.00800000E+00  1.00800000E+00  1.00800000E+00  1.00800000E+00  1.00800000E+00
  1.00800000E+00  1.00800000E+00  1.00800000E+00  1.00800000E+00  1.00800000E+00
  1.00800000E+00  1.00800000E+00  1.00800000E+00  1.00800000E+00  1.00800000E+00
  1.00800000E+00  1.00800000E+00  1.00800000E+00  1.00800000E+00  1.00800000E+00
  1.00800000E+00  1.00800000E+00  1.00800000E+00
%FLAG ATOM_TYPE_INDEX
%FORMAT(10I8)
      15      16      16      17      17      17      17      17      17      17
      17      17      17      17      17      17      17      17      17      17
      17      18      18      18      18      18      18      18      18      18
      18      18      18      18      18      18      18      18      18      18
      18      18      18      18      18      18      18      18      18      18
      18      18      18      18      18      18      18      18
%FLAG NUMBER_EXCLUDED_ATOMS
%FORMAT(10I8)
       9       5       4       9      11      13      13      13      13      13
      13      13      13      13      13      13      13      13      13      10
       7       3       2       3       2       3       2       3       2       3
       2       3       2       3       2       3       2       3       2       3
       2       3       2       3       2       3       2       3       2       3
       2       3       2       4       3       2       1       1
%FLAG NONBONDED_PARM_INDEX
%FORMAT(10I8)
       1       2       4       7      11      16      22      29      37      46
      56      67      79      92     106     121     137     154     172     191
       2       3       5       8      12      17      23      30      38      47
      57      68      80      93     107     122     138     155     173     192
       4       5       6       9      13      18      24      31      39      48
      58      69      81      94     108     123     139     156     174     193
       7       8       9      10      14      19      25      32      40      49
      59      70      82      95     109     124     140     157     175     194
      11      12      13      14      15      20      26      33      41      50
      60      71      83      96     110     125     141     158     176     195
      16      17      18      19      20      21      27      34      42      51
      61      72      84      97     111     126     142     159     177     196
      22      23      24      25      26      27      28      35      43      52
      62      73      85      98     112     127     143     160     178     197
      29      30      31      32      33      34      35      36      44      53
      63      74      86      99     113     128     144     161     179     198
      37      38      39      40      41      42      43      44      45      54
      64      75      87     100     114     129     145     162     180     199
      46      47      48      49      50      51      52      53      54      55
      65      76      88     101     115     130     146     163     181     200
      56      57      58      59      60      61      62      63      64      65
      66      77      89     102     116     131     147     164     182     201
      67      68      69      70      71      72      73      74      75      76
      77      78      90     103     117     132     148     165     183     202
      79      80      81      82      83      84      85      86      87      88
      89      90      91     104     118     133     149     166     184     203
      92      93      94      95      96      97      98      99     100     101
     102     103     104     105     119     134     150     167     185     204
     106     107     108     109     110     111     112     113     114     115
     116     117     118     119     120     135     151     168     186     205
     121     122     123     124     125     126     127     128     129     130
     131     132     133     134     135     136     152     169     187     206
     137     138     139     140     141     142     143     144     145     146
     147     148     149     150     151     152     153     170     188     207
     154     155     156     157     158     159     160     161     162     163
     164     165     166     167     168     169     170     171     189     208
     172     173     174     175     176     177     178     179     180     181
     182     183     184     185     186     187     188     189     190     209
     191     192     193     194     195     196     197     198     199     200
     201     202     203     204     205     206     207     208     209     210
%FLAG RESIDUE_LABEL
%FORMAT(20a4)
FAH 
%FLAG RESIDUE_POINTER
%FORMAT(10I8)
       1
%FLAG BOND_FORCE_CONSTANT
%FORMAT(5E16.8)
  3.45250000E+02  2.28890000E+02  5.90600000E+02  2.34850000E+02
%FLAG BOND_EQUIL_VALUE
%FORMAT(5E16.8)
  1.09620000E+00  1.53540000E+00  1.21900000E+00  1.52700000E+00
%FLAG ANGLE_FORCE_CONSTANT
%FORMAT(5E16.8)
  3.58000000E+01  4.32700000E+01  5.98700000E+01  7.64500000E+01  1.04940000E+02
  6.03600000E+01  4.36300000E+01
%FLAG ANGLE_EQUIL_VALUE
%FORMAT(5E16.8)
  1.88024401E+00  1.91427794E+00  1.96576518E+00  2.14501057E+00  2.27172153E+00
  1.94482122E+00  1.90153704E+00
%FLAG DIHEDRAL_FORCE_CONSTANT
%FORMAT(5E16.8)
  1.55555556E-01  0.00000000E+00  1.20000000E-01  1.30000000E-01  5.20000000E-01
  6.80000000E-01  2.00000000E-01  4.40000000E-01  4.03000000E+00  3.66000000E+00
  4.60000000E-01  4.00000000E-02  1.10000000E+00
%FLAG DIHEDRAL_PERIODICITY
%FORMAT(5E16.8)
  3.00000000E+00  3.00000000E+00  3.00000000E+00  3.00000000E+00  3.00000000E+00
  1.00000000E+00  2.00000000E+00  3.00000000E+00  1.00000000E+00  2.00000000E+00
  1.00000000E+00  2.00000000E+00  2.00000000E+00
%FLAG DIHEDRAL_PHASE
%FORMAT(5E16.8)
  0.00000000E+00  0.00000000E+00  0.00000000E+00  0.00000000E+00  0.00000000E+00
  0.00000000E+00  3.14159400E+00  3.14159400E+00  0.00000000E+00  3.14159400E+00
  3.14159400E+00  0.00000000E+00  3.14159400E+00
%FLAG SCEE_SCALE_FACTOR
%FORMAT(5E16.8)
  1.20000000E+00  1.20000000E+00  1.20000000E+00  1.20000000E+00  1.20000000E+00
  1.20000000E+00  1.20000000E+00  1.20000000E+00  1.20000000E+00  1.20000000E+00
  1.20000000E+00  1.20000000E+00  0.00000000E+00
%FLAG SCNB_SCALE_FACTOR
%FORMAT(5E16.8)
  2.00000000E+00  2.00000000E+00  2.00000000E+00  2.00000000E+00  2.00000000E+00
  2.00000000E+00  2.00000000E+00  2.00000000E+00  2.00000000E+00  2.00000000E+00
  2.00000000E+00  2.00000000E+00  0.00000000E+00
%FLAG SOLTY
%FORMAT(5E16.8)
  0.00000000E+00  0.00000000E+00  0.00000000E+00  0.00000000E+00  0.00000000E+00
  0.00000000E+00  0.00000000E+00  0.00000000E+00  0.00000000E+00  0.00000000E+00
  0.00000000E+00  0.00000000E+00  0.00000000E+00  0.00000000E+00  0.00000000E+00
  0.00000000E+00  0.00000000E+00  0.00000000E+00  0.00000000E+00  0.00000000E+00
  0.00000000E+00  0.00000000E+00  0.00000000E+00  0.00000000E+00  0.00000000E+00
  0.00000000E+00  0.00000000E+00  0.00000000E+00  0.00000000E+00  0.00000000E+00
  0.00000000E+00  0.00000000E+00  0.00000000E+00  0.00000000E+00  0.00000000E+00
  0.00000000E+00  0.00000000E+00  0.00000000E+00  0.00000000E+00  0.00000000E+00
%FLAG LENNARD_JONES_ACOEF
%FORMAT(5E16.8)
  9.44293233E+05  2.12601181E+03  1.39982777E-01  9.95480466E+05  2.56678134E+03
  1.04308023E+06  2.01791425E+04  9.14716912E+00  2.27401052E+04  2.01823541E+02
  8.96776989E+04  1.07193646E+02  9.71708117E+04  1.41077189E+03  7.51607703E+03
  8.82619071E+05  2.27577561E+03  9.24822270E+05  2.01619733E+04  8.61541883E+04
  8.19971662E+05  5.46147253E+04  4.90239937E+01  5.98885646E+04  7.50063100E+02
  4.33325458E+03  5.30987710E+04  2.43828624E+03  6.58473870E+04  6.63368273E+01
  7.18621074E+04  9.55000044E+02  5.34045360E+03  6.37148278E+04  3.03448006E+03
  3.76169105E+03  6.06829342E+05  1.02595236E+03  6.47841731E+05  1.12780457E+04
  5.44261042E+04  5.74393458E+05  3.23283631E+04  3.93690817E+04  3.79876399E+05
  6.20665997E+04  5.94667300E+01  6.78771368E+04  8.79040886E+02  4.98586848E+03
  6.01816484E+04  2.82099197E+03  3.50301067E+03  3.69471530E+04  3.25969625E+03
  7.44975864E+05  1.40467023E+03  7.91544157E+05  1.45985502E+04  6.82786631E+04
  7.01803794E+05  4.09427581E+04  4.96707306E+04  4.71003287E+05  4.66922514E+04
  5.81803229E+05  0.00000000E+00  0.00000000E+00  0.00000000E+00  0.00000000E+00
  0.00000000E+00  0.00000000E+00  0.00000000E+00  0.00000000E+00  0.00000000E+00
  0.00000000E+00  0.00000000E+00  0.00000000E+00  7.91627154E+04  8.90987508E+01
  8.59947003E+04  1.21014911E+03  6.55825601E+03  7.62451550E+04  3.76169105E+03
  4.64559155E+03  4.77908183E+04  4.33325458E+03  6.00750218E+04  0.00000000E+00
  5.71629601E+03  2.01562190E+06  5.97860700E+03  2.09861767E+06  4.93469320E+04
  2.02461849E+05  1.86068943E+06  1.26338489E+05  1.50848032E+05  1.32911052E+06
  1.42791446E+05  1.61587928E+06  0.00000000E+00  1.79647996E+05  4.19430400E+06
  8.11497350E+05  1.94008400E+03  8.53193737E+05  1.78601506E+04  7.80065389E+04
  7.56463928E+05  4.77581094E+04  5.74592031E+04  5.24402060E+05  5.42099106E+04
  6.42430744E+05  0.00000000E+00  6.89371259E+04  1.72268611E+06  6.96551276E+05
  5.99897901E+05  1.11043914E+03  6.37913494E+05  1.16505362E+04  5.47803235E+04
  5.65590822E+05  3.27958584E+04  3.98127143E+04  3.78641356E+05  3.74148715E+04
  4.68011805E+05  0.00000000E+00  4.81820985E+04  1.30335373E+06  5.17507491E+05
  3.76435470E+05  9.84684600E+05  2.53456440E+03  1.03184851E+06  2.24743442E+04
  9.60832554E+04  9.14863930E+05  5.92092559E+04  7.10513128E+04  6.40712560E+05
  6.71095195E+04  7.82881336E+05  0.00000000E+00  8.50294791E+04  2.07618920E+06
  8.43969952E+05  6.30925504E+05  1.02073671E+06  9.33217616E+04  1.05103439E+02
  1.01372942E+05  1.42703904E+03  7.73223568E+03  8.98799076E+04  4.43530964E+03
  5.47737117E+03  5.63419090E+04  5.10916075E+03  7.08225575E+04  0.00000000E+00
  6.73963720E+03  2.11768029E+05  8.12662403E+04  5.68021765E+04  1.00235148E+05
  7.94617769E+03  1.36919347E+05  1.25820601E+02  1.49995867E+05  1.90132449E+03
  1.09119307E+04  1.32990267E+05  6.15221292E+03  7.65043029E+03  8.12116828E+04
  7.11465296E+03  1.02772745E+05  0.00000000E+00  9.47658423E+03  3.16107989E+05
  1.19678640E+05  8.23334768E+04  1.48296311E+05  1.11735374E+04  1.55205818E+04
  7.42364908E+05  1.52094041E+03  7.85890042E+05  1.51483906E+04  6.91773368E+04
  6.96790708E+05  4.17832254E+04  5.05435913E+04  4.72934643E+05  4.75728872E+04
  5.82511344E+05  0.00000000E+00  6.09592309E+04  1.59822324E+06  6.39146293E+05
  4.68810254E+05  7.77325489E+05  7.18637611E+04  1.04820861E+05  5.81935564E+05
%FLAG LENNARD_JONES_BCOEF
%FORMAT(5E16.8)
  8.01323529E+02  2.09604198E+01  9.37598976E-02  7.36907417E+02  2.06278363E+01
  6.75612247E+02  6.45756063E+01  7.57919667E-01  6.13981767E+01  3.56012899E+00
  1.36131731E+02  2.59456373E+00  1.26919150E+02  9.41257003E+00  2.17257828E+01
  6.53361429E+02  1.82891803E+01  5.99015525E+02  5.44372326E+01  1.12529845E+02
  5.31102864E+02  1.05031585E+02  1.73473071E+00  9.85097219E+01  6.78541827E+00
  1.63092814E+01  8.73413012E+01  1.20953369E+01  1.15327881E+02  2.01792524E+00
  1.07908863E+02  7.65648470E+00  1.81057616E+01  9.56748258E+01  1.34932874E+01
  1.50233639E+01  6.77220874E+02  1.53505284E+01  6.26720080E+02  5.08951803E+01
  1.11805549E+02  5.55666448E+02  8.51921330E+01  9.40124296E+01  5.64885984E+02
  1.13252061E+02  1.93248820E+00  1.06076943E+02  7.42992380E+00  1.76949863E+01
  9.40505980E+01  1.31591746E+01  1.46638650E+01  9.21192136E+01  1.43076527E+01
  7.50714425E+02  1.79702257E+01  6.93079947E+02  5.79323581E+01  1.25287818E+02
  6.14502845E+02  9.59185913E+01  1.05648788E+02  6.29300710E+02  1.03606917E+02
  6.99746810E+02  0.00000000E+00  0.00000000E+00  0.00000000E+00  0.00000000E+00
  0.00000000E+00  0.00000000E+00  0.00000000E+00  0.00000000E+00  0.00000000E+00
  0.00000000E+00  0.00000000E+00  0.00000000E+00  1.26451907E+02  2.33864085E+00
  1.18043746E+02  8.61880722E+00  2.00642027E+01  1.04660679E+02  1.50233639E+01
  1.66953734E+01  1.03580945E+02  1.63092814E+01  1.16187983E+02  0.00000000E+00
  1.85196588E+01  1.28923404E+03  3.87070358E+01  1.17824605E+03  1.11203892E+02
  2.25248294E+02  1.04466382E+03  1.75916126E+02  1.92224012E+02  1.10369829E+03
  1.89165096E+02  1.21753341E+03  0.00000000E+00  2.09772716E+02  2.04800000E+03
  6.48597119E+02  1.74825352E+01  5.95658566E+02  5.30440533E+01  1.10856114E+02
  5.28126496E+02  8.57562161E+01  9.40636541E+01  5.49675335E+02  9.24130897E+01
  6.08686716E+02  0.00000000E+00  1.03031170E+02  1.04065628E+03  5.24668528E+02
  6.15165511E+02  1.45902714E+01  5.68167388E+02  4.72594809E+01  1.02477444E+02
  5.03752097E+02  7.83922976E+01  8.63723599E+01  5.15240418E+02  8.46911674E+01
  5.73100668E+02  0.00000000E+00  9.50181887E+01  9.98521059E+02  4.98871431E+02
  4.69350655E+02  7.30206155E+02  2.04226110E+01  6.69494459E+02  6.08139360E+01
  1.25742895E+02  5.93591333E+02  9.75893223E+01  1.06903901E+02  6.20970728E+02
  1.05087646E+02  6.86742760E+02  0.00000000E+00  1.16947855E+02  1.16762437E+03
  5.90251928E+02  5.62969425E+02  6.63431737E+02  1.48987394E+02  2.75631727E+00
  1.39078880E+02  1.01563736E+01  2.36414051E+01  1.23310980E+02  1.77023375E+01
  1.96722815E+01  1.22044000E+02  1.92174397E+01  1.36896727E+02  0.00000000E+00
  2.18216157E+01  2.47150236E+02  1.21392023E+02  1.11953944E+02  1.37787728E+02
  2.57122925E+01  2.58405233E+02  4.31824675E+00  2.42242668E+02  1.67864823E+01
  4.02144725E+01  2.14778698E+02  2.98534933E+01  3.32906603E+01  2.09807371E+02
  3.24719551E+01  2.36133213E+02  0.00000000E+00  3.70514656E+01  4.32373832E+02
  2.10937708E+02  1.92999406E+02  2.39980817E+02  4.36584025E+01  7.36779156E+01
  6.90894667E+02  1.72393904E+01  6.36687196E+02  5.44062826E+01  1.16264660E+02
  5.64503554E+02  8.93335697E+01  9.82532117E+01  5.81361517E+02  9.64152120E+01
  6.45512297E+02  0.00000000E+00  1.07902982E+02  1.11633519E+03  5.59732167E+02
  5.28811054E+02  6.30880403E+02  1.27133996E+02  2.19857570E+02  5.94825035E+02
%FLAG BONDS_INC_HYDROGEN
%FORMAT(10I8)
      60     165       1      60     168       1      60     171       1      57
     159       1      57     162       1      54     153       1      54     156
       1      51     147       1      51     150       1      48     141       1
      48     144       1      45     135       1      45     138       1      42
     129       1      42     132       1      39     123       1      39     126
       1      36     117       1      36     120       1      33     111       1
      33     114       1      30     105       1      30     108       1      27
      99       1      27     102       1      24      93       1      24      96
       1      21      87       1      21      90       1      18      81       1
      18      84       1      15      75       1      15      78       1      12
      69       1      12      72       1       9      63       1       9      66
       1
%FLAG BONDS_WITHOUT_HYDROGEN
%FORMAT(10I8)
      57      60       2      54      57       2      51      54       2      48
      51       2      45      48       2      42      45       2      39      42
       2      36      39       2      33      36       2      30      33       2
      27      30       2      24      27       2      21      24       2      18
      21       2      15      18       2      12      15       2       9      12
       2       0       3       3       0       6       3       0       9       4
%FLAG ANGLES_INC_HYDROGEN
%FORMAT(10I8)
     168      60     171       1     165      60     168       1     165      60
     171       1     159      57     162       1     153      54     156       1
     147      51     150       1     141      48     144       1     135      45
     138       1     129      42     132       1     123      39     126       1
     117      36     120       1     111      33     114       1     105      30
     108       1      99      27     102       1      93      24      96       1
      87      21      90       1      81      18      84       1      75      15
      78       1      69      12      72       1      63       9      66       1
      60      57     159       2      60      57     162       2      57      54
     153       2      57      54     156       2      57      60     165       2
      57      60     168       2      57      60     171       2      54      51
     147       2      54      51     150       2      54      57     159       2
      54      57     162       2      51      48     141       2      51      48
     144       2      51      54     153       2      51      54     156       2
      48      45     135       2      48      45     138       2      48      51
     147       2      48      51     150       2      45      42     129       2
      45      42     132       2      45      48     141       2      45      48
     144       2      42      39     123       2      42      39     126       2
      42      45     135       2      42      45     138       2      39      36
     117       2      39      36     120       2      39      42     129       2
      39      42     132       2      36      33     111       2      36      33
     114       2      36      39     123       2      36      39     126       2
      33      30     105       2      33      30     108       2      33      36
     117       2      33      36     120       2      30      27      99       2
      30      27     102       2      30      33     111       2      30      33
     114       2      27      24      93       2      27      24      96       2
      27      30     105       2      27      30     108       2      24      21
      87       2      24      21      90       2      24      27      99       2
      24      27     102       2      21      18      81       2      21      18
      84       2      21      24      93       2      21      24      96       2
      18      15      75       2      18      15      78       2      18      21
      87       2      18      21      90       2      15      12      69       2
      15      12      72       2      15      18      81       2      15      18
      84       2      12       9      63       2      12       9      66       2
      12      15      75       2      12      15      78       2       9      12
      69       2       9      12      72       2       0       9      63       7
       0       9      66       7
%FLAG ANGLES_WITHOUT_HYDROGEN
%FORMAT(10I8)
      54      57      60       3      51      54      57       3      48      51
      54       3      45      48      51       3      42      45      48       3
      39      42      45       3      36      39      42       3      33      36
      39       3      30      33      36       3      27      30      33       3
      24      27      30       3      21      24      27       3      18      21
      24       3      15      18      21       3      12      15      18       3
       9      12      15       3       6       0       9       4       3       0
       6       5       3       0       9       4       0       9      12       6
%FLAG DIHEDRALS_INC_HYDROGEN
%FORMAT(10I8)
     162      57      60     165       3     162      57      60     168       3
     162      57      60     171       3     159      57      60     165       3
     159      57      60     168       3     159      57      60     171       3
     156      54      57     159       3     156      54      57     162       3
     153      54      57     159       3     153      54      57     162       3
     150      51      54     153       3     150      51      54     156       3
     147      51      54     153       3     147      51      54     156       3
     144      48      51     147       3     144      48      51     150       3
     141      48      51     147       3     141      48      51     150       3
     138      45      48     141       3     138      45      48     144       3
     135      45      48     141       3     135      45      48     144       3
     132      42      45     135       3     132      42      45     138       3
     129      42      45     135       3     129      42      45     138       3
     126      39      42     129       3     126      39      42     132       3
     123      39      42     129       3     123      39      42     132       3
     120      36      39     123       3     120      36      39     126       3
     117      36      39     123       3     117      36      39     126       3
     114      33      36     117       3     114      33      36     120       3
     111      33      36     117       3     111      33      36     120       3
     108      30      33     111       3     108      30      33     114       3
     105      30      33     111       3     105      30      33     114       3
     102      27      30     105       3     102      27      30     108       3
      99      27      30     105       3      99      27      30     108       3
      96      24      27      99       3      96      24      27     102       3
      93      24      27      99       3      93      24      27     102       3
      90      21      24      93       3      90      21      24      96       3
      87      21      24      93       3      87      21      24      96       3
      84      18      21      87       3      84      18      21      90       3
      81      18      21      87       3      81      18      21      90       3
      78      15      18      81       3      78      15      18      84       3
      75      15      18      81       3      75      15      18      84       3
      72      12      15      75       3      72      12      15      78       3
      69      12      15      75       3      69      12      15      78       3
      66       9      12      69       3      66       9      12      72       3
      63       9      12      69       3      63       9      12      72       3
      60      57      54     153       4      60      57      54     156       4
      57      54      51     147       4      57      54      51     150       4
      54      51      48     141       4      54      51      48     144       4
      54      57      60     165       4      54      57      60     168       4
      54      57      60     171       4      51      48      45     135       4
      51      48      45     138       4      51      54      57     159       4
      51      54      57     162       4      48      45      42     129       4
      48      45      42     132       4      48      51      54     153       4
      48      51      54     156       4      45      42      39     123       4
      45      42      39     126       4      45      48      51     147       4
      45      48      51     150       4      42      39      36     117       4
      42      39      36     120       4      42      45      48     141       4
      42      45      48     144       4      39      36      33     111       4
      39      36      33     114       4      39      42      45     135       4
      39      42      45     138       4      36      33      30     105       4
      36      33      30     108       4      36      39      42     129       4
      36      39      42     132       4      33      30      27      99       4
      33      30      27     102       4      33      36      39     123       4
      33      36      39     126       4      30      27      24      93       4
      30      27      24      96       4      30      33      36     117       4
      30      33      36     120       4      27      24      21      87       4
      27      24      21      90       4      27      30      33     111       4
      27      30      33     114       4      24      21      18      81       4
      24      21      18      84       4      24      27      30     105       4
      24      27      30     108       4      21      18      15      75       4
      21      18      15      78       4      21      24      27      99       4
      21      24      27     102       4      18      15      12      69       4
      18      15      12      72       4      18      21      24      93       4
      18      21      24      96       4      15      12       9      63       4
      15      12       9      66       4      15      18      21      87       4
      15      18      21      90       4      12      15      18      81       4
      12      15      18      84       4       9      12      15      75       4
       9      12      15      78       4       6       0       9      63       9
       6       0      -9      63      10       6       0       9      66       9
       6       0      -9      66      10       3       0       9      63       9
       3       0      -9      63      10       3       0       9      66       9
       3       0      -9      66      10       0       9      12      69       1
       0       9      12      72       1
%FLAG DIHEDRALS_WITHOUT_HYDROGEN
%FORMAT(10I8)
      51      54      57      60       5      48      51      54      57       5
      45      48      51      54       5      42      45      48      51       5
      39      42      45      48       5      36      39      42      45       5
      33      36      39      42       5      30      33      36      39       5
      27      30      33      36       5      24      27      30      33       5
      21      24      27      30       5      18      21      24      27       5
      15      18      21      24       5      12      15      18      21       5
       9      12      15      18       5       6       0       9      12       6
       6       0      -9      12       7       6       0      -9      12       8
       3       0       9      12       6       3       0      -9      12       7
       3       0      -9      12       8       0       9      12      15      11
       0       9     -12      15      12       0       9     -12      15       2
       6       0      -3      -9      13
%FLAG EXCLUDED_ATOMS_LIST
%FORMAT(10I8)
       2       3       4       5       6      22      23      24      25       3
       4       5      22      23       4       5      22      23       5       6
       7      22      23      24      25      26      27       6       7       8
      22      23      24      25      26      27      28      29       7       8
       9      22      23      24      25      26      27      28      29      30
      31       8       9      10      24      25      26      27      28      29
      30      31      32      33       9      10      11      26      27      28
      29      30      31      32      33      34      35      10      11      12
      28      29      30      31      32      33      34      35      36      37
      11      12      13      30      31      32      33      34      35      36
      37      38      39      12      13      14      32      33      34      35
      36      37      38      39      40      41      13      14      15      34
      35      36      37      38      39      40      41      42      43      14
      15      16      36      37      38      39      40      41      42      43
      44      45      15      16      17      38      39      40      41      42
      43      44      45      46      47      16      17      18      40      41
      42      43      44      45      46      47      48      49      17      18
      19      42      43      44      45      46      47      48      49      50
      51      18      19      20      44      45      46      47      48      49
      50      51      52      53      19      20      21      46      47      48
      49      50      51      52      53      54      55      20      21      48
      49      50      51      52      53      54      55      56      57      58
      21      50      51      52      53      54      55      56      57      58
      52      53      54      55      56      57      58      23      24      25
      24      25      25      26      27      26      27      27      28      29
      28      29      29      30      31      30      31      31      32      33
      32      33      33      34      35      34      35      35      36      37
      36      37      37      38      39      38      39      39      40      41
      40      41      41      42      43      42      43      43      44      45
      44      45      45      46      47      46      47      47      48      49
      48      49      49      50      51      50      51      51      52      53
      52      53      53      54      55      54      55      55      56      57
      58      56      57      58      57      58      58       0
%FLAG HBOND_ACOEF
%FORMAT(5E16.8)

%FLAG HBOND_BCOEF
%FORMAT(5E16.8)

%FLAG HBCUT
%FORMAT(5E16.8)

%FLAG AMBER_ATOM_TYPE
%FORMAT(20a4)
c   o   o   c3  c3  c3  c3  c3  c3  c3  c3  c3  c3  c3  c3  c3  c3  c3  c3  c3  
c3  hc  hc  hc  hc  hc  hc  hc  hc  hc  hc  hc  hc  hc  hc  hc  hc  hc  hc  hc  
hc  hc  hc  hc  hc  hc  hc  hc  hc  hc  hc  hc  hc  hc  hc  hc  hc  hc  
%FLAG TREE_CHAIN_CLASSIFICATION
%FORMAT(20a4)
BLA BLA BLA BLA BLA BLA BLA BLA BLA BLA BLA BLA BLA BLA BLA BLA BLA BLA BLA BLA 
BLA BLA BLA BLA BLA BLA BLA BLA BLA BLA BLA BLA BLA BLA BLA BLA BLA BLA BLA BLA 
BLA BLA BLA BLA BLA BLA BLA BLA BLA BLA BLA BLA BLA BLA BLA BLA BLA BLA 
%FLAG JOIN_ARRAY
%FORMAT(10I8)
       0       0       0       0       0       0       0       0       0       0
       0       0       0       0       0       0       0       0       0       0
       0       0       0       0       0       0       0       0       0       0
       0       0       0       0       0       0       0       0       0       0
       0       0       0       0       0       0       0       0       0       0
       0       0       0       0       0       0       0       0
%FLAG IROTAT
%FORMAT(10I8)
       0       0       0       0       0       0       0       0       0       0
       0       0       0       0       0       0       0       0       0       0
       0       0       0       0       0       0       0       0       0       0
       0       0       0       0       0       0       0       0       0       0
       0       0       0       0       0       0       0       0       0       0
       0       0       0       0       0       0       0       0
%FLAG RADIUS_SET
%FORMAT(1a80)
H(N)-modified Bondi radii (mbondi2)                                             
%FLAG RADII
%FORMAT(5E16.8)
  1.70000000E+00  1.50000000E+00  1.50000000E+00  1.70000000E+00  1.70000000E+00
  1.70000000E+00  1.70000000E+00  1.70000000E+00  1.70000000E+00  1.70000000E+00
  1.70000000E+00  1.70000000E+00  1.70000000E+00  1.70000000E+00  1.70000000E+00
  1.70000000E+00  1.70000000E+00  1.70000000E+00  1.70000000E+00  1.70000000E+00
  1.70000000E+00  1.20000000E+00  1.20000000E+00  1.20000000E+00  1.20000000E+00
  1.20000000E+00  1.20000000E+00  1.20000000E+00  1.20000000E+00  1.20000000E+00
  1.20000000E+00  1.20000000E+00  1.20000000E+00  1.20000000E+00  1.20000000E+00
  1.20000000E+00  1.20000000E+00  1.20000000E+00  1.20000000E+00  1.20000000E+00
  1.20000000E+00  1.20000000E+00  1.20000000E+00  1.20000000E+00  1.20000000E+00
  1.20000000E+00  1.20000000E+00  1.20000000E+00  1.20000000E+00  1.20000000E+00
  1.20000000E+00  1.20000000E+00  1.20000000E+00  1.20000000E+00  1.20000000E+00
  1.20000000E+00  1.20000000E+00  1.20000000E+00
%FLAG SCREEN
%FORMAT(5E16.8)
  7.20000000E-01  8.50000000E-01  8.50000000E-01  7.20000000E-01  7.20000000E-01
  7.20000000E-01  7.20000000E-01  7.20000000E-01  7.20000000E-01  7.20000000E-01
  7.20000000E-01  7.20000000E-01  7.20000000E-01  7.20000000E-01  7.20000000E-01
  7.20000000E-01  7.20000000E-01  7.20000000E-01  7.20000000E-01  7.20000000E-01
  7.20000000E-01  8.50000000E-01  8.50000000E-01  8.50000000E-01  8.50000000E-01
  8.50000000E-01  8.50000000E-01  8.50000000E-01  8.50000000E-01  8.50000000E-01
  8.50000000E-01  8.50000000E-01  8.50000000E-01  8.50000000E-01  8.50000000E-01
  8.50000000E-01  8.50000000E-01  8.50000000E-01  8.50000000E-01  8.50000000E-01
  8.50000000E-01  8.50000000E-01  8.50000000E-01  8.50000000E-01  8.50000000E-01
  8.50000000E-01  8.50000000E-01  8.50000000E-01  8.50000000E-01  8.50000000E-01
  8.50000000E-01  8.50000000E-01  8.50000000E-01  8.50000000E-01  8.50000000E-01
  8.50000000E-01  8.50000000E-01  8.50000000E-01
%FLAG IPOL
%FORMAT(1I8)
       0
