%VERSION  VERSION_STAMP = V0001.000  DATE = 07/20/26  15:35:01
%FLAG TITLE
%FORMAT(20a4)
default_name
%FLAG POINTERS
%FORMAT(10I8)
      60      20      36      23      90      24     152      35       0       0
     339       1      23      24      35       4       7      13      40       0
       0       0       0       0       0       0       0       0      60       0
       0
%FLAG ATOM_NAME
%FORMAT(20a4)
C1D O1D O2D C01 C02 C03 C04 C05 C06 C07 C08 C09 C10 C11 C12 C13 C14 C15 C16 C17 
C18 C1P O1P O2P H1A H1B H2A H2B H3A H3B H4A H4B H5A H5B H6A H6B H7A H7B H8A H8B 
H9A H9B H10AH10BH11AH11BH12AH12BH13AH13BH14AH14BH15AH15BH16AH16BH17AH17BH18AH18B
%FLAG CHARGE
%FORMAT(5E16.8)
  1.41733049E+01 -1.61978025E+01 -1.61978025E+01 -2.42903259E+00 -2.42903259E+00
 -2.42903259E+00 -2.42903259E+00 -2.42903259E+00 -2.42903259E+00 -2.42903259E+00
 -2.42903259E+00 -2.46183273E+00 -2.42903259E+00 -2.42903259E+00 -2.42903259E+00
 -2.42903259E+00 -2.42903259E+00 -2.42903259E+00 -2.42903259E+00 -2.42903259E+00
 -2.42903259E+00  1.41733049E+01 -1.61978025E+01 -1.61978025E+01  1.21542741E+00
  1.21542741E+00  1.21542741E+00  1.21542741E+00  1.21542741E+00  1.21542741E+00
  1.21542741E+00  1.21542741E+00  1.21542741E+00  1.21542741E+00  1.21542741E+00
  1.21542741E+00  1.21542741E+00  1.21542741E+00  1.21542741E+00  1.21542741E+00
  1.21542741E+00  1.21542741E+00  1.21542741E+00  1.21542741E+00  1.21542741E+00
  1.21542741E+00  1.21542741E+00  1.21542741E+00  1.21542741E+00  1.21542741E+00
  1.21542741E+00  1.21542741E+00  1.21542741E+00  1.21542741E+00  1.21542741E+00
  1.21542741E+00  1.21542741E+00  1.21542741E+00  1.21542741E+00  1.21542741E+00
%FLAG ATOMIC_NUMBER
%FORMAT(10I8)
       6       8       8       6       6       6       6       6       6       6
       6       6       6       6       6       6       6       6       6       6
       6       6       8       8       1       1       1       1       1       1
       1       1       1       1       1       1       1       1       1       1
       1       1       1       1       1       1       1       1       1       1
       1       1       1       1       1       1       1       1       1       1
%FLAG MASS
%FORMAT(5E16.8)
  1.20100000E+01  1.60000000E+01  1.60000000E+01  1.20100000E+01  1.20100000E+01
  1.20100000E+01  1.20100000E+01  1.20100000E+01  1.20100000E+01  1.20100000E+01
  1.20100000E+01  1.20100000E+01  1.20100000E+01  1.20100000E+01  1.20100000E+01
  1.20100000E+01  1.20100000E+01  1.20100000E+01  1.20100000E+01  1.20100000E+01
  1.20100000E+01  1.20100000E+01  1.60000000E+01  1.60000000E+01  1.00800000E+00
  1.00800000E+00  1.00800000E+00  1.00800000E+00  1.00800000E+00  1.00800000E+00
  1.00800000E+00  1.00800000E+00  1.00800000E+00  1.00800000E+00  1.00800000E+00
  1.00800000E+00  1.00800000E+00  1.00800000E+00  1.00800000E+00  1.00800000E+00
  1.00800000E+00  1.00800000E+00  1.00800000E+00  1.00800000E+00  1.00800000E+00
  1.00800000E+00  1.00800000E+00  1.00800000E+00  1.00800000E+00  1.00800000E+00
  1.00800000E+00  1.00800000E+00  1.00800000E+00  1.00800000E+00  1.00800000E+00
  1.00800000E+00  1.00800000E+00  1.00800000E+00  1.00800000E+00  1.00800000E+00
%FLAG ATOM_TYPE_INDEX
%FORMAT(10I8)
      15      16      16      17      17      17      17      17      17      17
      17      17      17      17      17      17      17      17      17      17
      17      15      16      16      18      18      18      18      18      18
      18      18      18      18      18      18      18      18      18      18
      18      18      18      18      18      18      18      18      18      18
      18      18      18      18      18      18      18      18      18      18
%FLAG NUMBER_EXCLUDED_ATOMS
%FORMAT(10I8)
       9       5       4       9      11      13      13      13      13      13
      13      13      13      13      13      13      13      13      13      12
       9       6       3       2       3       2       3       2       3       2
       3       2       3       2       3       2       3       2       3       2
       3       2       3       2       3       2       3       2       3       2
       3       2       3       2       3       2       3       2       1       1
%FLAG NONBONDED_PARM_INDEX
%FORMAT(10I8)
       1       2       4       7      11      16      22      29      37      46
      56      67      79      92     106     121     137     154     172     191
       2       3       5       8      12      17      23      30      38      47
      57      68      80      93     107     122     138     155     173     192
       4       5       6       9      13      18      24      31      39      48
      58      69      81      94     108     123     139     156     174     193
       7       8       9      10      14      19      25      32      40      49
      59      70      82      95     109     124     140     157     175     194
      11      12      13      14      15      20      26      33      41      50
      60      71      83      96     110     125     141     158     176     195
      16      17      18      19      20      21      27      34      42      51
      61      72      84      97     111     126     142     159     177     196
      22      23      24      25      26      27      28      35      43      52
      62      73      85      98     112     127     143     160     178     197
      29      30      31      32      33      34      35      36      44      53
      63      74      86      99     113     128     144     161     179     198
      37      38      39      40      41      42      43      44      45      54
      64      75      87     100     114     129     145     162     180     199
      46      47      48      49      50      51      52      53      54      55
      65      76      88     101     115     130     146     163     181     200
      56      57      58      59      60      61      62      63      64      65
      66      77      89     102     116     131     147     164     182     201
      67      68      69      70      71      72      73      74      75      76
      77      78      90     103     117     132     148     165     183     202
      79      80      81      82      83      84      85      86      87      88
      89      90      91     104     118     133     149     166     184     203
      92      93      94      95      96      97      98      99     100     101
     102     103     104     105     119     134     150     167     185     204
     106     107     108     109     110     111     112     113     114     115
     116     117     118     119     120     135     151     168     186     205
     121     122     123     124     125     126     127     128     129     130
     131     132     133     134     135     136     152     169     187     206
     137     138     139     140     141     142     143     144     145     146
     147     148     149     150     151     152     153     170     188     207
     154     155     156     157     158     159     160     161     162     163
     164     165     166     167     168     169     170     171     189     208
     172     173     174     175     176     177     178     179     180     181
     182     183     184     185     186     187     188     189     190     209
     191     192     193     194     195     196     197     198     199     200
     201     202     203     204     205     206     207     208     209     210
%FLAG RESIDUE_LABEL
%FORMAT(20a4)
FAH 
%FLAG RESIDUE_POINTER
%FORMAT(10I8)
       1
%FLAG BOND_FORCE_CONSTANT
%FORMAT(5E16.8)
  5.90600000E+02  2.34850000E+02  3.45250000E+02  2.28890000E+02
%FLAG BOND_EQUIL_VALUE
%FORMAT(5E16.8)
  1.21900000E+00  1.52700000E+00  1.09620000E+00  1.53540000E+00
%FLAG ANGLE_FORCE_CONSTANT
%FORMAT(5E16.8)
  3.58000000E+01  1.04940000E+02  4.36300000E+01  4.32700000E+01  7.64500000E+01
  6.03600000E+01  5.98700000E+01
%FLAG ANGLE_EQUIL_VALUE
%FORMAT(5E16.8)
  1.88024401E+00  2.27172153E+00  1.90153704E+00  1.91427794E+00  2.14501057E+00
  1.94482122E+00  1.96576518E+00
%FLAG DIHEDRAL_FORCE_CONSTANT
%FORMAT(5E16.8)
  1.55555556E-01  0.00000000E+00  1.20000000E-01  4.03000000E+00  3.66000000E+00
  1.30000000E-01  6.80000000E-01  2.00000000E-01  4.40000000E-01  4.60000000E-01
  4.00000000E-02  5.20000000E-01  1.10000000E+00
%FLAG DIHEDRAL_PERIODICITY
%FORMAT(5E16.8)
  3.00000000E+00  3.00000000E+00  3.00000000E+00  1.00000000E+00  2.00000000E+00
  3.00000000E+00  1.00000000E+00  2.00000000E+00  3.00000000E+00  1.00000000E+00
  2.00000000E+00  3.00000000E+00  2.00000000E+00
%FLAG DIHEDRAL_PHASE
%FORMAT(5E16.8)
  0.00000000E+00  0.00000000E+00  0.00000000E+00  0.00000000E+00  3.14159400E+00
  0.00000000E+00  0.00000000E+00  3.14159400E+00  3.14159400E+00  3.14159400E+00
  0.00000000E+00  0.00000000E+00  3.14159400E+00
%FLAG SCEE_SCALE_FACTOR
%FORMAT(5E16.8)
  1.20000000E+00  1.20000000E+00  1.20000000E+00  1.20000000E+00  1.20000000E+00
  1.20000000E+00  1.20000000E+00  1.20000000E+00  1.20000000E+00  1.20000000E+00
  1.20000000E+00  1.20000000E+00  0.00000000E+00
%FLAG SCNB_SCALE_FACTOR
%FORMAT(5E16.8)
  2.00000000E+00  2.00000000E+00  2.00000000E+00  2.00000000E+00  2.00000000E+00
  2.00000000E+00  2.00000000E+00  2.00000000E+00  2.00000000E+00  2.00000000E+00
  2.00000000E+00  2.00000000E+00  0.00000000E+00
%FLAG SOLTY
%FORMAT(5E16.8)
  0.00000000E+00  0.00000000E+00  0.00000000E+00  0.00000000E+00  0.00000000E+00
  0.00000000E+00  0.00000000E+00  0.00000000E+00  0.00000000E+00  0.00000000E+00
  0.00000000E+00  0.00000000E+00  0.00000000E+00  0.00000000E+00  0.00000000E+00
  0.00000000E+00  0.00000000E+00  0.00000000E+00  0.00000000E+00  0.00000000E+00
  0.00000000E+00  0.00000000E+00  0.00000000E+00  0.00000000E+00  0.00000000E+00
  0.00000000E+00  0.00000000E+00  0.00000000E+00  0.00000000E+00  0.00000000E+00
  0.00000000E+00  0.00000000E+00  0.00000000E+00  0.00000000E+00  0.00000000E+00
  0.00000000E+00  0.00000000E+00  0.00000000E+00  0.00000000E+00  0.00000000E+00
%FLAG LENNARD_JONES_ACOEF
%FORMAT(5E16.8)
  9.44293233E+05  2.12601181E+03  1.39982777E-01  9.95480466E+05  2.56678134E+03
  1.04308023E+06  2.01791425E+04  9.14716912E+00  2.27401052E+04  2.01823541E+02
  8.96776989E+04  1.07193646E+02  9.71708117E+04  1.41077189E+03  7.51607703E+03
  8.82619071E+05  2.27577561E+03  9.24822270E+05  2.01619733E+04  8.61541883E+04
  8.19971662E+05  5.46147253E+04  4.90239937E+01  5.98885646E+04  7.50063100E+02
  4.33325458E+03  5.30987710E+04  2.43828624E+03  6.58473870E+04  6.63368273E+01
  7.18621074E+04  9.55000044E+02  5.34045360E+03  6.37148278E+04  3.03448006E+03
  3.76169105E+03  6.06829342E+05  1.02595236E+03  6.47841731E+05  1.12780457E+04
  5.44261042E+04  5.74393458E+05  3.23283631E+04  3.93690817E+04  3.79876399E+05
  6.20665997E+04  5.94667300E+01  6.78771368E+04  8.79040886E+02  4.98586848E+03
  6.01816484E+04  2.82099197E+03  3.50301067E+03  3.69471530E+04  3.25969625E+03
  7.44975864E+05  1.40467023E+03  7.91544157E+05  1.45985502E+04  6.82786631E+04
  7.01803794E+05  4.09427581E+04  4.96707306E+04  4.71003287E+05  4.66922514E+04
  5.81803229E+05  0.00000000E+00  0.00000000E+00  0.00000000E+00  0.00000000E+00
  0.00000000E+00  0.00000000E+00  0.00000000E+00  0.00000000E+00  0.00000000E+00
  0.00000000E+00  0.00000000E+00  0.00000000E+00  7.91627154E+04  8.90987508E+01
  8.59947003E+04  1.21014911E+03  6.55825601E+03  7.62451550E+04  3.76169105E+03
  4.64559155E+03  4.77908183E+04  4.33325458E+03  6.00750218E+04  0.00000000E+00
  5.71629601E+03  2.01562190E+06  5.97860700E+03  2.09861767E+06  4.93469320E+04
  2.02461849E+05  1.86068943E+06  1.26338489E+05  1.50848032E+05  1.32911052E+06
  1.42791446E+05  1.61587928E+06  0.00000000E+00  1.79647996E+05  4.19430400E+06
  8.11497350E+05  1.94008400E+03  8.53193737E+05  1.78601506E+04  7.80065389E+04
  7.56463928E+05  4.77581094E+04  5.74592031E+04  5.24402060E+05  5.42099106E+04
  6.42430744E+05  0.00000000E+00  6.89371259E+04  1.72268611E+06  6.96551276E+05
  5.99897901E+05  1.11043914E+03  6.37913494E+05  1.16505362E+04  5.47803235E+04
  5.65590822E+05  3.27958584E+04  3.98127143E+04  3.78641356E+05  3.74148715E+04
  4.68011805E+05  0.00000000E+00  4.81820985E+04  1.30335373E+06  5.17507491E+05
  3.76435470E+05  9.84684600E+05  2.53456440E+03  1.03184851E+06  2.24743442E+04
  9.60832554E+04  9.14863930E+05  5.92092559E+04  7.10513128E+04  6.40712560E+05
  6.71095195E+04  7.82881336E+05  0.00000000E+00  8.50294791E+04  2.07618920E+06
  8.43969952E+05  6.30925504E+05  1.02073671E+06  9.33217616E+04  1.05103439E+02
  1.01372942E+05  1.42703904E+03  7.73223568E+03  8.98799076E+04  4.43530964E+03
  5.47737117E+03  5.63419090E+04  5.10916075E+03  7.08225575E+04  0.00000000E+00
  6.73963720E+03  2.11768029E+05  8.12662403E+04  5.68021765E+04  1.00235148E+05
  7.94617769E+03  1.36919347E+05  1.25820601E+02  1.49995867E+05  1.90132449E+03
  1.09119307E+04  1.32990267E+05  6.15221292E+03  7.65043029E+03  8.12116828E+04
  7.11465296E+03  1.02772745E+05  0.00000000E+00  9.47658423E+03  3.16107989E+05
  1.19678640E+05  8.23334768E+04  1.48296311E+05  1.11735374E+04  1.55205818E+04
  7.42364908E+05  1.52094041E+03  7.85890042E+05  1.51483906E+04  6.91773368E+04
  6.96790708E+05  4.17832254E+04  5.05435913E+04  4.72934643E+05  4.75728872E+04
  5.82511344E+05  0.00000000E+00  6.09592309E+04  1.59822324E+06  6.39146293E+05
  4.68810254E+05  7.77325489E+05  7.18637611E+04  1.04820861E+05  5.81935564E+05
%FLAG LENNARD_JONES_BCOEF
%FORMAT(5E16.8)
  8.01323529E+02  2.09604198E+01  9.37598976E-02  7.36907417E+02  2.06278363E+01
  6.75612247E+02  6.45756063E+01  7.57919667E-01  6.13981767E+01  3.56012899E+00
  1.36131731E+02  2.59456373E+00  1.26919150E+02  9.41257003E+00  2.17257828E+01
  6.53361429E+02  1.82891803E+01  5.99015525E+02  5.44372326E+01  1.12529845E+02
  5.31102864E+02  1.05031585E+02  1.73473071E+00  9.85097219E+01  6.78541827E+00
  1.63092814E+01  8.73413012E+01  1.20953369E+01  1.15327881E+02  2.01792524E+00
  1.07908863E+02  7.65648470E+00  1.81057616E+01  9.56748258E+01  1.34932874E+01
  1.50233639E+01  6.77220874E+02  1.53505284E+01  6.26720080E+02  5.08951803E+01
  1.11805549E+02  5.55666448E+02  8.51921330E+01  9.40124296E+01  5.64885984E+02
  1.13252061E+02  1.93248820E+00  1.06076943E+02  7.42992380E+00  1.76949863E+01
  9.40505980E+01  1.31591746E+01  1.46638650E+01  9.21192136E+01  1.43076527E+01
  7.50714425E+02  1.79702257E+01  6.93079947E+02  5.79323581E+01  1.25287818E+02
  6.14502845E+02  9.59185913E+01  1.05648788E+02  6.29300710E+02  1.03606917E+02
  6.99746810E+02  0.00000000E+00  0.00000000E+00  0.00000000E+00  0.00000000E+00
  0.00000000E+00  0.00000000E+00  0.00000000E+00  0.00000000E+00  0.00000000E+00
  0.00000000E+00  0.00000000E+00  0.00000000E+00  1.26451907E+02  2.33864085E+00
  1.18043746E+02  8.61880722E+00  2.00642027E+01  1.04660679E+02  1.50233639E+01
  1.66953734E+01  1.03580945E+02  1.63092814E+01  1.16187983E+02  0.00000000E+00
  1.85196588E+01  1.28923404E+03  3.87070358E+01  1.17824605E+03  1.11203892E+02
  2.25248294E+02  1.04466382E+03  1.75916126E+02  1.92224012E+02  1.10369829E+03
  1.89165096E+02  1.21753341E+03  0.00000000E+00  2.09772716E+02  2.04800000E+03
  6.48597119E+02  1.74825352E+01  5.95658566E+02  5.30440533E+01  1.10856114E+02
  5.28126496E+02  8.57562161E+01  9.40636541E+01  5.49675335E+02  9.24130897E+01
  6.08686716E+02  0.00000000E+00  1.03031170E+02  1.04065628E+03  5.24668528E+02
  6.15165511E+02  1.45902714E+01  5.68167388E+02  4.72594809E+01  1.02477444E+02
  5.03752097E+02  7.83922976E+01  8.63723599E+01  5.15240418E+02  8.46911674E+01
  5.73100668E+02  0.00000000E+00  9.50181887E+01  9.98521059E+02  4.98871431E+02
  4.69350655E+02  7.30206155E+02  2.04226110E+01  6.69494459E+02  6.08139360E+01
  1.25742895E+02  5.93591333E+02  9.75893223E+01  1.06903901E+02  6.20970728E+02
  1.05087646E+02  6.86742760E+02  0.00000000E+00  1.16947855E+02  1.16762437E+03
  5.90251928E+02  5.62969425E+02  6.63431737E+02  1.48987394E+02  2.75631727E+00
  1.39078880E+02  1.01563736E+01  2.36414051E+01  1.23310980E+02  1.77023375E+01
  1.96722815E+01  1.22044000E+02  1.92174397E+01  1.36896727E+02  0.00000000E+00
  2.18216157E+01  2.47150236E+02  1.21392023E+02  1.11953944E+02  1.37787728E+02
  2.57122925E+01  2.58405233E+02  4.31824675E+00  2.42242668E+02  1.67864823E+01
  4.02144725E+01  2.14778698E+02  2.98534933E+01  3.32906603E+01  2.09807371E+02
  3.24719551E+01  2.36133213E+02  0.00000000E+00  3.70514656E+01  4.32373832E+02
  2.10937708E+02  1.92999406E+02  2.39980817E+02  4.36584025E+01  7.36779156E+01
  6.90894667E+02  1.72393904E+01  6.36687196E+02  5.44062826E+01  1.16264660E+02
  5.64503554E+02  8.93335697E+01  9.82532117E+01  5.81361517E+02  9.64152120E+01
  6.45512297E+02  0.00000000E+00  1.07902982E+02  1.11633519E+03  5.59732167E+02
  5.28811054E+02  6.30880403E+02  1.27133996E+02  2.19857570E+02  5.94825035E+02
%FLAG BONDS_INC_HYDROGEN
%FORMAT(10I8)
      60     174       3      60     177       3      57     168       3      57
     171       3      54     162       3      54     165       3      51     156
       3      51     159       3      48     150       3      48     153       3
      45     144       3      45     147       3      42     138       3      42
     141       3      39     132       3      39     135       3      36     126
       3      36     129       3      33     120       3      33     123       3
      30     114       3      30     117       3      27     108       3      27
     111       3      24     102       3      24     105       3      21      96
       3      21      99       3      18      90       3      18      93       3
      15      84       3      15      87       3      12      78       3      12
      81       3       9      72       3       9      75       3
%FLAG BONDS_WITHOUT_HYDROGEN
%FORMAT(10I8)
      63      66       1      63      69       1      60      63       2      57
      60       4      54      57       4      51      54       4      48      51
       4      45      48       4      42      45       4      39      42       4
      36      39       4      33      36       4      30      33       4      27
      30       4      24      27       4      21      24       4      18      21
       4      15      18       4      12      15       4       9      12       4
       0       3       1       0       6       1       0       9       2
%FLAG ANGLES_INC_HYDROGEN
%FORMAT(10I8)
     174      60     177       1     168      57     171       1     162      54
     165       1     156      51     159       1     150      48     153       1
     144      45     147       1     138      42     141       1     132      39
     135       1     126      36     129       1     120      33     123       1
     114      30     117       1     108      27     111       1     102      24
     105       1      96      21      99       1      90      18      93       1
      84      15      87       1      78      12      81       1      72       9
      75       1      63      60     174       3      63      60     177       3
      60      57     168       4      60      57     171       4      57      54
     162       4      57      54     165       4      57      60     174       4
      57      60     177       4      54      51     156       4      54      51
     159       4      54      57     168       4      54      57     171       4
      51      48     150       4      51      48     153       4      51      54
     162       4      51      54     165       4      48      45     144       4
      48      45     147       4      48      51     156       4      48      51
     159       4      45      42     138       4      45      42     141       4
      45      48     150       4      45      48     153       4      42      39
     132       4      42      39     135       4      42      45     144       4
      42      45     147       4      39      36     126       4      39      36
     129       4      39      42     138       4      39      42     141       4
      36      33     120       4      36      33     123       4      36      39
     132       4      36      39     135       4      33      30     114       4
      33      30     117       4      33      36     126       4      33      36
     129       4      30      27     108       4      30      27     111       4
      30      33     120       4      30      33     123       4      27      24
     102       4      27      24     105       4      27      30     114       4
      27      30     117       4      24      21      96       4      24      21
      99       4      24      27     108       4      24      27     111       4
      21      18      90       4      21      18      93       4      21      24
     102       4      21      24     105       4      18      15      84       4
      18      15      87       4      18      21      96       4      18      21
      99       4      15      12      78       4      15      12      81       4
      15      18      90       4      15      18      93       4      12       9
      72       4      12       9      75       4      12      15      84       4
      12      15      87       4       9      12      78       4       9      12
      81       4       0       9      72       3       0       9      75       3
%FLAG ANGLES_WITHOUT_HYDROGEN
%FORMAT(10I8)
      66      63      69       2      60      63      66       5      60      63
      69       5      57      60      63       6      54      57      60       7
      51      54      57       7      48      51      54       7      45      48
      51       7      42      45      48       7      39      42      45       7
      36      39      42       7      33      36      39       7      30      33
      36       7      27      30      33       7      24      27      30       7
      21      24      27       7      18      21      24       7      15      18
      21       7      12      15      18       7       9      12      15       7
       6       0       9       5       3       0       6       2       3       0
       9       5       0       9      12       6
%FLAG DIHEDRALS_INC_HYDROGEN
%FORMAT(10I8)
     171      57      60     174       3     171      57      60     177       3
     168      57      60     174       3     168      57      60     177       3
     165      54      57     168       3     165      54      57     171       3
     162      54      57     168       3     162      54      57     171       3
     159      51      54     162       3     159      51      54     165       3
     156      51      54     162       3     156      51      54     165       3
     153      48      51     156       3     153      48      51     159       3
     150      48      51     156       3     150      48      51     159       3
     147      45      48     150       3     147      45      48     153       3
     144      45      48     150       3     144      45      48     153       3
     141      42      45     144       3     141      42      45     147       3
     138      42      45     144       3     138      42      45     147       3
     135      39      42     138       3     135      39      42     141       3
     132      39      42     138       3     132      39      42     141       3
     129      36      39     132       3     129      36      39     135       3
     126      36      39     132       3     126      36      39     135       3
     123      33      36     126       3     123      33      36     129       3
     120      33      36     126       3     120      33      36     129       3
     117      30      33     120       3     117      30      33     123       3
     114      30      33     120       3     114      30      33     123       3
     111      27      30     114       3     111      27      30     117       3
     108      27      30     114       3     108      27      30     117       3
     105      24      27     108       3     105      24      27     111       3
     102      24      27     108       3     102      24      27     111       3
      99      21      24     102       3      99      21      24     105       3
      96      21      24     102       3      96      21      24     105       3
      93      18      21      96       3      93      18      21      99       3
      90      18      21      96       3      90      18      21      99       3
      87      15      18      90       3      87      15      18      93       3
      84      15      18      90       3      84      15      18      93       3
      81      12      15      84       3      81      12      15      87       3
      78      12      15      84       3      78      12      15      87       3
      75       9      12      78       3      75       9      12      81       3
      72       9      12      78       3      72       9      12      81       3
      69      63      60     174       4      69      63     -60     174       5
      69      63      60     177       4      69      63     -60     177       5
      66      63      60     174       4      66      63     -60     174       5
      66      63      60     177       4      66      63     -60     177       5
      63      60      57     168       1      63      60      57     171       1
      60      57      54     162       6      60      57      54     165       6
      57      54      51     156       6      57      54      51     159       6
      54      51      48     150       6      54      51      48     153       6
      54      57      60     174       6      54      57      60     177       6
      51      48      45     144       6      51      48      45     147       6
      51      54      57     168       6      51      54      57     171       6
      48      45      42     138       6      48      45      42     141       6
      48      51      54     162       6      48      51      54     165       6
      45      42      39     132       6      45      42      39     135       6
      45      48      51     156       6      45      48      51     159       6
      42      39      36     126       6      42      39      36     129       6
      42      45      48     150       6      42      45      48     153       6
      39      36      33     120       6      39      36      33     123       6
      39      42      45     144       6      39      42      45     147       6
      36      33      30     114       6      36      33      30     117       6
      36      39      42     138       6      36      39      42     141       6
      33      30      27     108       6      33      30      27     111       6
      33      36      39     132       6      33      36      39     135       6
      30      27      24     102       6      30      27      24     105       6
      30      33      36     126       6      30      33      36     129       6
      27      24      21      96       6      27      24      21      99       6
      27      30      33     120       6      27      30      33     123       6
      24      21      18      90       6      24      21      18      93       6
      24      27      30     114       6      24      27      30     117       6
      21      18      15      84       6      21      18      15      87       6
      21      24      27     108       6      21      24      27     111       6
      18      15      12      78       6      18      15      12      81       6
      18      21      24     102       6      18      21      24     105       6
      15      12       9      72       6      15      12       9      75       6
      15      18      21      96       6      15      18      21      99       6
      12      15      18      90       6      12      15      18      93       6
       9      12      15      84       6       9      12      15      87       6
       6       0       9      72       4       6       0      -9      72       5
       6       0       9      75       4       6       0      -9      75       5
       3       0       9      72       4       3       0      -9      72       5
       3       0       9      75       4       3       0      -9      75       5
       0       9      12      78       1       0       9      12      81       1
%FLAG DIHEDRALS_WITHOUT_HYDROGEN
%FORMAT(10I8)
      57      60      63      66       7      57      60     -63      66       8
      57      60     -63      66       9      57      60      63      69       7
      57      60     -63      69       8      57      60     -63      69       9
      54      57      60      63      10      54      57     -60      63      11
      54      57     -60      63       2      51      54      57      60      12
      48      51      54      57      12      45      48      51      54      12
      42      45      48      51      12      39      42      45      48      12
      36      39      42      45      12      33      36      39      42      12
      30      33      36      39      12      27      30      33      36      12
      24      27      30      33      12      21      24      27      30      12
      18      21      24      27      12      15      18      21      24      12
      12      15      18      21      12       9      12      15      18      12
       6       0       9      12       7       6       0      -9      12       8
       6       0      -9      12       9       3       0       9      12       7
       3       0      -9      12       8       3       0      -9      12       9
       0       9      12      15      10       0       9     -12      15      11
       0       9     -12      15       2      60      66     -63     -69      13
       6       0      -3      -9      13
%FLAG EXCLUDED_ATOMS_LIST
%FORMAT(10I8)
       2       3       4       5       6      25      26      27      28       3
       4       5      25      26       4       5      25      26       5       6
       7      25      26      27      28      29      30       6       7       8
      25      26      27      28      29      30      31      32       7       8
       9      25      26      27      28      29      30      31      32      33
      34       8       9      10      27      28      29      30      31      32
      33      34      35      36       9      10      11      29      30      31
      32      33      34      35      36      37      38      10      11      12
      31      32      33      34      35      36      37      38      39      40
      11      12      13      33      34      35      36      37      38      39
      40      41      42      12      13      14      35      36      37      38
      39      40      41      42      43      44      13      14      15      37
      38      39      40      41      42      43      44      45      46      14
      15      16      39      40      41      42      43      44      45      46
      47      48      15      16      17      41      42      43      44      45
      46      47      48      49      50      16      17      18      43      44
      45      46      47      48      49      50      51      52      17      18
      19      45      46      47      48      49      50      51      52      53
      54      18      19      20      47      48      49      50      51      52
      53      54      55      56      19      20      21      49      50      51
      52      53      54      55      56      57      58      20      21      22
      51      52      53      54      55      56      57      58      59      60
      21      22      23      24      53      54      55      56      57      58
      59      60      22      23      24      55      56      57      58      59
      60      23      24      57      58      59      60      24      59      60
      59      60      26      27      28      27      28      28      29      30
      29      30      30      31      32      31      32      32      33      34
      33      34      34      35      36      35      36      36      37      38
      37      38      38      39      40      39      40      40      41      42
      41      42      42      43      44      43      44      44      45      46
      45      46      46      47      48      47      48      48      49      50
      49      50      50      51      52      51      52      52      53      54
      53      54      54      55      56      55      56      56      57      58
      57      58      58      59      60      59      60      60       0
%FLAG HBOND_ACOEF
%FORMAT(5E16.8)

%FLAG HBOND_BCOEF
%FORMAT(5E16.8)

%FLAG HBCUT
%FORMAT(5E16.8)

%FLAG AMBER_ATOM_TYPE
%FORMAT(20a4)
c   o   o   c3  c3  c3  c3  c3  c3  c3  c3  c3  c3  c3  c3  c3  c3  c3  c3  c3  
c3  c   o   o   hc  hc  hc  hc  hc  hc  hc  hc  hc  hc  hc  hc  hc  hc  hc  hc  
hc  hc  hc  hc  hc  hc  hc  hc  hc  hc  hc  hc  hc  hc  hc  hc  hc  hc  hc  hc  
%FLAG TREE_CHAIN_CLASSIFICATION
%FORMAT(20a4)
BLA BLA BLA BLA BLA BLA BLA BLA BLA BLA BLA BLA BLA BLA BLA BLA BLA BLA BLA BLA 
BLA BLA BLA BLA BLA BLA BLA BLA BLA BLA BLA BLA BLA BLA BLA BLA BLA BLA BLA BLA 
BLA BLA BLA BLA BLA BLA BLA BLA BLA BLA BLA BLA BLA BLA BLA BLA BLA BLA BLA BLA 
%FLAG JOIN_ARRAY
%FORMAT(10I8)
       0       0       0       0       0       0       0       0       0       0
       0       0       0       0       0       0       0       0       0       0
       0       0       0       0       0       0       0       0       0       0
       0       0       0       0       0       0       0       0       0       0
       0       0       0       0       0       0       0       0       0       0
       0       0       0       0       0       0       0       0       0       0
%FLAG IROTAT
%FORMAT(10I8)
       0       0       0       0       0       0       0       0       0       0
       0       0       0       0       0       0       0       0       0       0
       0       0       0       0       0       0       0       0       0       0
       0       0       0       0       0       0       0       0       0       0
       0       0       0       0       0       0       0       0       0       0
       0       0       0       0       0       0       0       0       0       0
%FLAG RADIUS_SET
%FORMAT(1a80)
H(N)-modified Bondi radii (mbondi2)                                             
%FLAG RADII
%FORMAT(5E16.8)
  1.70000000E+00  1.50000000E+00  1.50000000E+00  1.70000000E+00  1.70000000E+00
  1.70000000E+00  1.70000000E+00  1.70000000E+00  1.70000000E+00  1.70000000E+00
  1.70000000E+00  1.70000000E+00  1.70000000E+00  1.70000000E+00  1.70000000E+00
  1.70000000E+00  1.70000000E+00  1.70000000E+00  1.70000000E+00  1.70000000E+00
  1.70000000E+00  1.70000000E+00  1.50000000E+00  1.50000000E+00  1.20000000E+00
  1.20000000E+00  1.20000000E+00  1.20000000E+00  1.20000000E+00  1.20000000E+00
  1.20000000E+00  1.20000000E+00  1.20000000E+00  1.20000000E+00  1.20000000E+00
  1.20000000E+00  1.20000000E+00  1.20000000E+00  1.20000000E+00  1.20000000E+00
  1.20000000E+00  1.20000000E+00  1.20000000E+00  1.20000000E+00  1.20000000E+00
  1.20000000E+00  1.20000000E+00  1.20000000E+00  1.20000000E+00  1.20000000E+00
  1.20000000E+00  1.20000000E+00  1.20000000E+00  1.20000000E+00  1.20000000E+00
  1.20000000E+00  1.20000000E+00  1.20000000E+00  1.20000000E+00  1.20000000E+00
%FLAG SCREEN
%FORMAT(5E16.8)
  7.20000000E-01  8.50000000E-01  8.50000000E-01  7.20000000E-01  7.20000000E-01
  7.20000000E-01  7.20000000E-01  7.20000000E-01  7.20000000E-01  7.20000000E-01
  7.20000000E-01  7.20000000E-01  7.20000000E-01  7.20000000E-01  7.20000000E-01
  7.20000000E-01  7.20000000E-01  7.20000000E-01  7.20000000E-01  7.20000000E-01
  7.20000000E-01  7.20000000E-01  8.50000000E-01  8.50000000E-01  8.50000000E-01
  8.50000000E-01  8.50000000E-01  8.50000000E-01  8.50000000E-01  8.50000000E-01
  8.50000000E-01  8.50000000E-01  8.50000000E-01  8.50000000E-01  8.50000000E-01
  8.50000000E-01  8.50000000E-01  8.50000000E-01  8.50000000E-01  8.50000000E-01
  8.50000000E-01  8.50000000E-01  8.50000000E-01  8.50000000E-01  8.50000000E-01
  8.50000000E-01  8.50000000E-01  8.50000000E-01  8.50000000E-01  8.50000000E-01
  8.50000000E-01  8.50000000E-01  8.50000000E-01  8.50000000E-01  8.50000000E-01
  8.50000000E-01  8.50000000E-01  8.50000000E-01  8.50000000E-01  8.50000000E-01
%FLAG IPOL
%FORMAT(1I8)
       0
